ITEM: TIMESTEP
0
ITEM: NUMBER OF ATOMS
512
ITEM: BOX BOUNDS pp pp pp
0 8.500000
0 8.500000
0 8.500000
ITEM: ATOMS id x y z vx vy vz 
0 0.531669 0.531069 0.531110 -0.406555 0.839582 0.714576
1 0.531247 0.531332 1.594083 -0.178682 -0.345394 -0.272976
2 0.531086 0.531453 2.656419 -0.244274 0.103228 0.338935
3 0.531002 0.531477 3.718929 0.559522 -0.646225 -0.163605
4 0.531245 0.530663 4.781094 -0.176704 0.643805 0.789905
5 0.531338 0.531150 5.844220 0.152680 0.735658 0.124256
6 0.531113 0.530938 6.906961 -0.588750 0.700217 0.074469
7 0.531682 0.530873 7.969011 0.220164 0.284027 0.313877
8 0.531102 1.593828 0.531024 0.359632 0.118067 0.892416
9 0.531009 1.593900 1.594146 -0.052586 0.387589 -0.047381
10 0.531306 1.593920 2.656794 0.465325 -0.171438 -0.127841
11 0.531186 1.593369 3.718746 -0.206018 0.209952 0.506220
12 0.531376 1.593951 4.781207 0.044918 -0.304578 0.338426
13 0.530707 1.594183 5.844057 0.480928 -0.465146 -0.441920
14 0.531321 1.594184 6.906134 0.056810 -0.501061 0.680883
15 0.531293 1.593706 7.969047 -0.250331 -0.440875 -0.621399
16 0.531154 2.656628 0.531293 0.124226 -0.558191 0.364278
17 0.531827 2.656702 1.593774 -0.428574 -0.002040 0.012709
18 0.530847 2.656042 2.656252 0.685495 0.211926 0.297463
19 0.531383 2.655887 3.719041 -0.476510 -0.220428 -0.514810
20 0.530974 2.656703 4.780983 0.671015 -0.323777 0.098924
21 0.531194 2.656296 5.843303 -0.138297 0.322845 0.223538
22 0.531658 2.656460 6.906345 -0.783331 0.367120 -0.157215
23 0.530887 2.656146 7.969118 0.386504 -0.047321 -0.215673
24 0.531398 3.718462 0.530737 -0.341808 0.756869 0.966322
25 0.531064 3.719023 1.594178 -0.097483 0.328888 -0.519993
26 0.531376 3.718599 2.656593 -0.447228 0.427719 -0.239565
27 0.531137 3.718583 3.718420 0.210832 0.038841 0.460961
28 0.531330 3.718639 4.781061 -0.292959 0.567203 -0.095675
29 0.531464 3.718687 5.843817 0.117294 -0.164337 -0.145975
30 0.531831 3.718879 6.906348 -0.458433 0.436321 0.059454
31 0.531567 3.718651 7.968839 0.122300 -0.226048 -0.501083
32 0.530838 4.781379 0.530871 0.250685 -0.078839 0.210084
33 0.531081 4.781375 1.593602 -0.762337 0.744255 -0.171914
34 0.532022 4.781759 2.656336 -0.569040 -0.060695 -0.267765
35 0.531166 4.781487 3.718705 0.021419 -0.807771 0.572429
36 0.531200 4.781257 4.781700 -0.599663 0.267632 -0.232588
37 0.531230 4.780988 5.843967 0.333813 0.161555 0.288660
38 0.531201 4.781598 6.906284 -0.447364 -0.535867 0.173858
39 0.531254 4.781024 7.968749 -0.391198 0.457313 -0.355527
40 0.531871 5.844063 0.530948 -0.161493 -0.183190 0.605333
41 0.531250 5.844365 1.593946 0.172723 -0.191585 -0.422254
42 0.531025 5.844301 2.656302 0.025581 -0.213775 -0.009422
43 0.531316 5.843340 3.718587 -0.111077 0.995836 -0.203776
44 0.531477 5.844143 4.780842 -0.333851 -0.697127 -0.204600
45 0.531281 5.843742 5.843345 -0.132390 0.092642 0.229367
46 0.531140 5.843403 6.906537 0.214226 0.937525 -0.515531
47 0.531064 5.844124 7.968886 0.025839 -0.549987 -0.147127
48 0.531137 6.906227 0.530987 -0.733803 0.901481 0.219776
49 0.531720 6.906486 1.593590 0.068454 -0.036847 -0.433111
50 0.531493 6.906047 2.655925 -0.129945 0.854247 0.229809
51 0.531081 6.906671 3.718845 -0.187279 -0.817488 -0.304083
52 0.531248 6.905903 4.781357 -0.441035 0.631500 -0.292065
53 0.531494 6.906603 5.843468 -0.539371 -0.117239 0.735066
54 0.531115 6.906539 6.906618 0.258916 -0.608827 -0.468165
55 0.530717 6.906259 7.968880 0.166834 0.332405 -0.015727
56 0.531237 7.969339 0.531212 0.333800 -0.748642 -0.412254
57 0.531382 7.968317 1.593407 -0.156418 0.713784 0.273272
58 0.530968 7.968882 2.656249 0.534744 -0.097321 0.254264
59 0.531227 7.968690 3.719354 0.061420 0.696333 -0.413257
60 0.531322 7.968676 4.781393 -0.334565 -0.870455 0.214582
61 0.531518 7.968952 5.843494 -0.406227 0.065499 0.182123
62 0.531100 7.968741 6.906050 -0.108239 -0.033787 -0.196314
63 0.531116 7.968728 7.968641 1.016190 -0.357817 -0.143445
64 1.594117 0.531992 0.531096 -0.105366 -0.622291 0.111816
65 1.593484 0.531631 1.593404 -0.029007 -0.040799 -0.013769
66 1.593527 0.531424 2.656073 0.012364 -0.003980 -0.068828
67 1.594014 0.531088 3.718870 0.049462 0.183216 -0.679637
68 1.593807 0.531062 4.780872 -0.044866 0.584948 0.679388
69 1.593831 0.531002 5.843989 0.106878 0.673069 -0.446882
70 1.593252 0.531124 6.906388 0.722233 0.760209 0.393817
71 1.594112 0.530891 7.969054 -0.333991 0.528005 -0.310824
72 1.593981 1.593809 0.530901 -0.756465 0.775226 0.285135
73 1.593662 1.593986 1.593783 -0.350546 0.164808 -0.234466
74 1.593813 1.594074 2.656387 0.260691 0.177155 0.092390
75 1.593610 1.593810 3.718940 -0.062734 -0.009936 0.106256
76 1.593635 1.593936 4.781393 0.667595 -0.698285 -0.057890
77 1.593506 1.594276 5.843629 -0.658486 -0.899986 0.317134
78 1.593768 1.594063 6.906318 -0.330907 -0.732636 -0.248170
79 1.593562 1.594094 7.968689 -0.203293 -1.059897 -0.239779
80 1.594029 2.656336 0.531480 -0.318111 0.084699 0.039831
81 1.593612 2.656262 1.593699 0.585923 0.095417 0.035851
82 1.594420 2.656561 2.656014 -0.916392 -0.434048 -0.285029
83 1.593755 2.656455 3.718303 0.036935 -0.390010 0.349528
84 1.593716 2.655927 4.781447 -0.889356 1.005225 -0.695985
85 1.593697 2.656078 5.843666 -0.153478 0.721766 0.401853
86 1.593602 2.655954 6.906369 0.507360 0.567308 0.116510
87 1.593983 2.655866 7.969056 -0.214616 0.495922 0.062318
88 1.593567 3.718847 0.531250 0.121362 -0.324963 0.023278
89 1.593558 3.718627 1.593896 0.015082 0.081100 0.161048
90 1.593563 3.718291 2.656543 0.173501 1.015840 -0.074702
91 1.593751 3.718499 3.718792 0.131282 0.057858 0.356009
92 1.593585 3.719300 4.781348 0.615797 -0.611393 -0.364916
93 1.593654 3.718770 5.843440 0.687984 -0.183609 0.175510
94 1.593624 3.718709 6.906044 0.708856 -0.486735 -0.259125
95 1.593993 3.718532 7.968626 -0.274618 -0.084494 -0.109853
96 1.593524 4.780921 0.531191 0.216483 0.180352 0.093663
97 1.593371 4.781202 1.593453 0.540743 -1.040323 0.044094
98 1.593874 4.781525 2.656075 0.380762 -0.879985 -0.010884
99 1.593669 4.780864 3.718881 -0.104006 0.083445 0.159823
100 1.593235 4.781436 4.781720 0.645973 0.800967 -0.229942
101 1.593960 4.781261 5.843830 0.233246 0.336960 0.707274
102 1.593504 4.781017 6.906570 -0.139754 0.621612 0.126263
103 1.593466 4.781345 7.969087 0.139225 -0.088632 -0.050358
104 1.593834 5.843531 0.531591 0.960579 -0.045808 -0.296798
105 1.593949 5.842803 1.593600 0.077607 0.313672 0.375503
106 1.593887 5.843562 2.656129 -0.095397 0.663396 0.233934
107 1.593375 5.843750 3.719027 0.249860 -0.667404 -0.546794
108 1.593614 5.844169 4.781079 0.354852 0.189371 0.418875
109 1.593774 5.844080 5.843737 0.307623 -0.627308 -0.056888
110 1.593836 5.844229 6.906345 -0.213748 -0.712804 0.053695
111 1.593279 5.843955 7.968921 -0.240705 0.327937 0.274128
112 1.593144 6.906331 0.531347 0.388199 -0.298908 -0.645360
113 1.593731 6.905723 1.593536 0.750287 -0.388095 0.016032
114 1.593808 6.906463 2.655958 0.773973 -0.517624 -0.016236
115 1.593582 6.905960 3.718676 -0.118695 0.229138 0.129785
116 1.594026 6.906642 4.781613 -0.359197 0.279082 -0.489312
117 1.593572 6.905949 5.843667 0.880419 0.528746 0.773926
118 1.593912 6.906197 6.906587 -0.414060 0.834982 -0.756934
119 1.593642 6.906686 7.968397 -0.901819 -0.320785 0.752827
120 1.593980 7.968734 0.531318 -0.663778 0.800300 -0.097317
121 1.593999 7.968837 1.593602 0.138269 -0.207244 0.226780
122 1.593914 7.968589 2.656258 -0.481490 0.522592 -0.210493
123 1.594121 7.968727 3.718680 -0.733222 -0.433126 0.339521
124 1.593460 7.968964 4.781525 0.478166 0.001685 -0.239760
125 1.593321 7.968687 5.843832 0.715231 -0.495587 0.322500
126 1.593629 7.969076 6.906365 0.005313 -0.471002 0.078971
127 1.594315 7.968631 7.968859 -1.099254 0.187846 0.090079
128 2.656081 0.531079 0.531312 0.580516 -0.177933 0.091735
129 2.655982 0.531148 1.593574 0.144699 0.269100 0.254235
130 2.656227 0.531349 2.656269 -0.039693 0.301438 0.395995
131 2.656786 0.531024 3.719338 -0.220668 0.484873 0.138142
132 2.656261 0.531259 4.781901 -0.055472 0.481428 -0.187861
133 2.656326 0.531163 5.843591 0.227656 -0.428777 0.952606
134 2.656690 0.531383 6.906384 -1.247652 -0.068606 0.034165
135 2.655838 0.531330 7.969077 0.627810 0.266035 -0.100211
136 2.655861 1.593460 0.531569 -0.106284 -0.406751 -0.422098
137 2.656053 1.593646 1.593698 0.374601 -0.442802 0.490649
138 2.656520 1.593886 2.656370 -0.278290 -0.316800 -0.007818
139 2.656125 1.593547 3.718895 -0.324567 0.761051 -0.140646
140 2.656695 1.594043 4.781139 -0.408334 -0.674789 -0.079880
141 2.655899 1.593341 5.843440 0.251684 0.317840 0.460048
142 2.655848 1.593832 6.906551 0.302907 -0.653890 -0.652046
143 2.655844 1.594084 7.968671 0.122162 -0.241034 0.677801
144 2.656280 2.655754 0.531633 0.473126 0.229843 -0.040586
145 2.656131 2.655811 1.593935 0.120198 0.148594 0.126919
146 2.656313 2.655954 2.656164 0.560578 0.018973 0.150197
147 2.656168 2.657108 3.718631 0.019370 -1.056146 0.138640
148 2.655602 2.655844 4.781365 0.396457 0.785966 0.005294
149 2.656093 2.656303 5.843980 -0.256019 -0.456827 -0.336083
150 2.656208 2.655561 6.906012 -0.110348 0.845901 0.568448
151 2.656602 2.656234 7.968886 -0.358429 0.138403 0.004400
152 2.656055 3.718820 0.531461 0.118159 -0.494787 -0.138036
153 2.656261 3.718584 1.593465 -0.281401 -0.554185 0.142779
154 2.656134 3.718371 2.655914 -0.143424 0.040630 0.293975
155 2.656491 3.718664 3.719045 -0.011846 1.200959 -0.767922
156 2.656638 3.718871 4.781074 -0.563376 -0.605697 0.688378
157 2.656646 3.718715 5.843999 -0.331726 0.131196 0.064508
158 2.656248 3.718888 6.906713 0.197070 -0.728767 0.188277
159 2.655885 3.718515 7.969103 0.349782 0.523894 0.342523
160 2.656673 4.781286 0.531458 -0.097558 0.364564 -0.548677
161 2.656635 4.780971 1.593640 -0.663676 0.020150 0.315929
162 2.655959 4.781227 2.656233 0.759906 -0.451158 0.279302
163 2.656141 4.781501 3.719133 -0.095460 -0.122942 -0.174849
164 2.656487 4.781142 4.781454 -1.150630 -0.325198 0.538333
165 2.656685 4.781298 5.844106 -0.082130 0.733105 -0.260305
166 2.655929 4.781304 6.906123 0.254044 -0.080489 0.210650
167 2.656111 4.781576 7.968498 -0.171671 -0.634751 0.287565
168 2.656652 5.844075 0.531512 -0.239456 -0.437631 -0.773958
169 2.656507 5.843688 1.593276 -0.085560 -0.230402 0.897429
170 2.656501 5.843652 2.656454 -0.387346 -0.117896 -0.298453
171 2.656081 5.843932 3.719093 0.065337 -0.127674 -0.309543
172 2.656242 5.843204 4.781063 -0.110789 0.674098 0.608266
173 2.656554 5.844589 5.843843 -0.198845 -0.151807 -0.290015
174 2.656213 5.843582 6.906228 0.284822 0.571596 0.061718
175 2.655752 5.843649 7.968707 -0.206753 0.415239 0.278940
176 2.656203 6.906069 0.531093 -0.438734 0.446181 -0.032290
177 2.656514 6.906228 1.593580 -0.349311 0.248561 0.186190
178 2.656854 6.906059 2.656423 -0.528337 0.328509 -0.477002
179 2.656151 6.906031 3.718593 0.351908 0.840056 0.319855
180 2.656133 6.906570 4.781242 0.270672 -0.617482 -0.244013
181 2.656741 6.906789 5.843661 -0.288781 0.214019 0.006634
182 2.656109 6.906656 6.906179 -0.250473 -0.576012 -0.020673
183 2.655767 6.906253 7.968753 0.875521 -0.135098 -0.210347
184 2.655826 7.968712 0.531086 0.413323 -0.322798 -0.225399
185 2.656489 7.969032 1.593685 0.143216 -0.381052 -0.325105
186 2.656199 7.969017 2.656018 0.407090 -0.334584 -0.429894
187 2.655887 7.969212 3.718177 0.104575 -0.867234 0.397894
188 2.656401 7.968947 4.781379 -0.171222 0.139907 -1.131926
189 2.656292 7.968643 5.843306 -0.751904 0.562445 0.593312
190 2.656291 7.968713 6.906310 0.283092 0.571086 -0.808841
191 2.655818 7.968739 7.968431 0.786714 0.094725 0.179117
192 3.718781 0.531032 0.531375 -0.181434 0.801235 -0.731601
193 3.718919 0.531194 1.593405 -0.280474 -0.348711 -0.151241
194 3.718919 0.531835 2.655642 -0.007409 -1.148690 0.590508
195 3.718755 0.530868 3.719150 0.232599 0.523654 -0.801096
196 3.718668 0.531445 4.781402 0.254304 0.112909 0.106943
197 3.718971 0.531030 5.843609 -0.307671 0.020676 0.496961
198 3.718374 0.530971 6.906468 0.785894 0.330290 -0.610865
199 3.718616 0.530427 7.968477 -0.313718 0.552582 0.582817
200 3.718031 1.594053 0.531303 0.395120 -0.482763 -0.328079
201 3.719033 1.593607 1.593388 -0.615338 -0.003329 -0.152188
202 3.718652 1.593300 2.655699 0.333576 1.182202 0.384218
203 3.718469 1.593914 3.719003 0.240191 -0.322924 -0.566357
204 3.718835 1.594246 4.781443 0.122756 -0.861809 0.064669
205 3.718934 1.593870 5.843742 -0.091145 -0.434016 0.240863
206 3.718660 1.593932 6.906294 0.114942 -0.288031 0.029132
207 3.718675 1.593497 7.968838 -0.524284 -0.445468 0.022465
208 3.718970 2.656248 0.531101 -0.115855 -0.093037 0.820207
209 3.718901 2.656153 1.593965 -0.138837 0.228150 -0.095460
210 3.718691 2.656426 2.656489 -0.193817 -0.731917 -0.159322
211 3.718682 2.656438 3.718597 0.174089 0.621538 0.482688
212 3.718593 2.655690 4.781349 -0.065600 0.318480 -0.233002
213 3.718391 2.656135 5.843764 -0.431073 0.018627 -0.033279
214 3.718744 2.656390 6.906137 -0.498865 0.196497 0.582543
215 3.718478 2.656397 7.969217 0.632202 -1.089379 -0.689177
216 3.718878 3.718345 0.530923 -0.436550 0.064764 0.561569
217 3.718666 3.719026 1.593599 -0.102892 0.075620 0.122226
218 3.718686 3.718615 2.656548 0.247721 0.275835 -0.757913
219 3.718958 3.719398 3.718419 0.731671 -0.351257 0.794373
220 3.718703 3.718020 4.781447 0.186296 -0.427507 -0.915465
221 3.718881 3.718536 5.843345 0.008107 0.002834 0.361056
222 3.719070 3.718881 6.906036 -0.519966 -0.094037 0.152473
223 3.718513 3.718061 7.969142 0.028679 1.108288 -0.917558
224 3.719260 4.780938 0.531121 0.104638 -0.145813 0.029992
225 3.718803 4.781665 1.593397 0.322254 0.076827 0.597691
226 3.719144 4.781238 2.656672 -0.435355 -0.339337 -0.609818
227 3.718635 4.781290 3.718859 -0.319474 0.653210 0.645080
228 3.718328 4.780717 4.781585 0.445087 -0.844612 -0.269988
229 3.718869 4.781157 5.843687 0.325754 -0.438487 0.515877
230 3.718971 4.781132 6.906371 -0.329482 0.527412 0.088875
231 3.718719 4.781598 7.969009 0.043704 -0.778683 -0.247680
232 3.718797 5.843736 0.531331 0.384636 0.261319 -0.023787
233 3.718726 5.843921 1.594065 -0.042798 0.309187 -0.345669
234 3.718470 5.843549 2.656093 0.559539 0.459612 0.241273
235 3.719043 5.843781 3.718530 -0.346976 -0.680810 0.044683
236 3.718771 5.843131 4.781256 -0.088209 -0.331733 -0.377850
237 3.718819 5.843426 5.843601 -0.021523 0.198011 0.660798
238 3.718908 5.844053 6.906785 -0.087809 -0.372381 -0.899542
239 3.718553 5.843935 7.968485 -0.581708 0.766233 0.873207
240 3.718855 6.906835 0.531686 -0.227030 -0.269817 -1.138997
241 3.718678 6.906293 1.593407 0.477829 -0.141212 0.806736
242 3.718724 6.906560 2.656296 0.609731 -0.627005 -0.704741
243 3.719191 6.905560 3.718426 -0.759785 0.689220 0.529081
244 3.718643 6.905865 4.781426 0.289703 -0.465485 -0.264213
245 3.719075 6.906251 5.843956 -0.190702 -0.609298 -0.367093
246 3.718208 6.906257 6.905907 0.595199 0.175500 0.098807
247 3.719310 6.906848 7.968332 -0.612314 -0.355197 0.446655
248 3.718527 7.969034 0.531079 0.073942 0.092514 0.296113
249 3.718857 7.968489 1.593693 -0.030103 0.217138 0.114054
250 3.718959 7.968596 2.656469 -0.031077 1.009616 -0.104383
251 3.718143 7.968774 3.718889 0.320065 -1.073083 -0.077879
252 3.718992 7.968533 4.781075 -0.106327 0.009850 0.496338
253 3.718467 7.968454 5.843961 -0.001169 0.065436 -0.333966
254 3.719199 7.968642 6.906265 0.023421 -0.160074 0.398909
255 3.718525 7.968778 7.968949 -0.064596 -0.273640 -0.322504
256 4.781246 0.530991 0.531547 -0.159199 1.366379 -0.199872
257 4.781394 0.531009 1.593977 0.090940 -0.473974 -0.397080
258 4.781425 0.531441 2.655761 0.141764 0.316860 0.743627
259 4.780933 0.531020 3.718799 0.473531 -0.063669 -0.617881
260 4.781433 0.531174 4.781158 -0.401064 0.058293 -0.101472
261 4.781062 0.531456 5.843504 0.813839 -0.804859 -0.110326
262 4.781247 0.531615 6.906009 -0.210910 -1.133339 -0.200612
263 4.781207 0.531007 7.968579 -0.344584 0.632737 0.215599
264 4.781408 1.594210 0.531111 -1.206422 -0.772093 -0.525883
265 4.781076 1.592991 1.593589 0.932261 -0.016408 -0.377905
266 4.781225 1.593923 2.655856 0.070574 0.431006 0.018137
267 4.781361 1.593423 3.718551 -0.972678 -0.245450 -0.269347
268 4.781000 1.593952 4.781193 0.511525 0.017860 0.337800
269 4.781668 1.593250 5.844249 -0.317582 0.659066 -0.275964
270 4.781687 1.593272 6.906483 -0.632303 0.694697 -0.205181
271 4.781033 1.593666 7.968251 -0.137602 -0.016120 0.576234
272 4.781292 2.656140 0.531090 0.688428 0.826943 -0.380140
273 4.781371 2.655775 1.593673 -0.524769 -0.186130 0.093362
274 4.780937 2.656637 2.656426 0.233085 -0.101582 -0.342962
275 4.781443 2.655936 3.718636 -0.209442 -0.185817 0.142527
276 4.781684 2.656515 4.781107 -0.489325 0.015937 0.532262
277 4.780644 2.656248 5.844288 0.546246 -0.627023 -1.076203
278 4.780783 2.656122 6.905826 0.784058 -0.006546 0.487803
279 4.781273 2.656388 7.968289 -0.153513 0.158767 -0.161348
280 4.781127 3.719017 0.530851 0.344912 -0.462456 -0.252535
281 4.781062 3.718905 1.593064 -0.160616 -0.749829 0.118276
282 4.781571 3.718824 2.656125 -0.820771 0.926196 -0.747764
283 4.781943 3.718610 3.718559 -0.451713 -0.241067 0.062915
284 4.780997 3.718799 4.781268 0.229250 0.173217 -0.298151
285 4.780985 3.718603 5.843657 0.620706 0.093195 0.643733
286 4.781030 3.719116 6.906821 0.192391 -0.397583 -0.526474
287 4.781433 3.719117 7.968806 -0.204027 -0.142055 0.118419
288 4.781410 4.781130 0.531166 -0.079220 0.460528 -0.195519
289 4.781249 4.781108 1.593358 0.238634 -0.062630 0.205142
290 4.781441 4.781867 2.656163 0.176148 0.003154 0.245026
291 4.780940 4.781199 3.719316 0.359840 0.055584 -0.630088
292 4.781061 4.781187 4.781223 -0.034909 0.079156 0.589645
293 4.781251 4.781212 5.843757 0.279778 -0.305326 -0.462082
294 4.781442 4.781311 6.905811 -0.358240 -0.022538 0.480757
295 4.781411 4.781306 7.968843 -0.193749 -0.100196 -0.598700
296 4.781282 5.843826 0.530782 0.205353 0.150319 0.234157
297 4.780925 5.843424 1.593615 0.245118 -0.133270 -0.791995
298 4.781311 5.844244 2.655784 -0.558382 0.709929 0.476219
299 4.781333 5.843915 3.718942 0.388855 -0.290954 -0.493280
300 4.781186 5.843710 4.781378 0.011985 -0.271862 -0.426467
301 4.781001 5.843550 5.843255 0.645782 -0.320953 0.625932
302 4.781334 5.843411 6.906292 0.448877 0.158466 -0.585822
303 4.780988 5.843344 7.968692 0.052182 0.740748 -0.373044
304 4.781169 6.906586 0.531051 0.281588 0.407597 0.154567
305 4.781403 6.905964 1.593544 -0.415894 -0.021744 0.025483
306 4.781230 6.906803 2.656281 0.282096 0.308302 -1.069076
307 4.780988 6.906165 3.717923 0.711892 0.298816 0.757037
308 4.781586 6.905991 4.781217 -0.401092 0.004758 -0.537978
309 4.780866 6.905770 5.843993 0.946687 0.136163 0.082408
310 4.781538 6.906029 6.906576 -0.288540 -0.453195 0.110269
311 4.781580 6.906584 7.968912 0.298237 -0.232591 -0.015342
312 4.781552 7.969409 0.531026 -0.076820 -0.560396 0.181969
313 4.781083 7.968819 1.593588 0.337362 -0.592097 0.016511
314 4.781453 7.969078 2.656333 -0.170662 0.436407 -0.207326
315 4.781412 7.968796 3.718766 -1.087029 -0.356806 0.069188
316 4.781199 7.968536 4.781244 0.460672 -0.130596 -0.277710
317 4.780965 7.968640 5.843440 -0.167745 -0.154709 -0.067595
318 4.781615 7.968419 6.905901 -0.016841 0.417029 0.134527
319 4.781426 7.969223 7.968883 -0.469018 -0.366881 -0.700230
320 5.843566 0.531303 0.531023 0.162946 -0.075219 -0.121839
321 5.843802 0.531578 1.593453 -0.075574 -0.590883 -0.034934
322 5.843886 0.531442 2.656162 -0.244307 0.453304 -0.022663
323 5.843948 0.531326 3.718931 -0.649872 -0.360991 -0.863007
324 5.843582 0.530917 4.780660 0.405591 -0.191827 0.973901
325 5.844192 0.531224 5.844010 -0.870181 0.542057 -0.518584
326 5.843916 0.531043 6.906526 -0.051394 0.737224 -0.009613
327 5.843497 0.531422 7.968722 0.599265 -0.425198 0.066043
328 5.843373 1.593953 0.531373 0.537609 0.136918 -0.550986
329 5.844265 1.593572 1.593659 -0.411494 0.876917 0.190811
330 5.843894 1.594214 2.656230 -0.635015 -0.083170 0.061879
331 5.843157 1.593541 3.718876 0.391238 -0.047891 -0.003934
332 5.843976 1.593355 4.781386 -0.418295 0.272337 -0.051739
333 5.843627 1.594291 5.843689 0.967008 -0.688459 -0.456725
334 5.843601 1.593934 6.905620 0.471003 -0.134410 0.158649
335 5.843496 1.593283 7.968393 -0.086857 0.479518 -0.168607
336 5.844275 2.656515 0.531722 0.324923 -0.693206 -0.354732
337 5.843185 2.656641 1.593826 0.684955 -0.617437 0.299636
338 5.843769 2.656394 2.656143 -0.324716 0.038312 0.492344
339 5.843798 2.655924 3.719075 0.213771 -0.133433 -0.285374
340 5.843790 2.656518 4.781357 -0.016590 -0.550361 0.196017
341 5.844136 2.656077 5.843725 -1.173621 0.523741 -0.097863
342 5.844129 2.656471 6.906042 -0.629720 -0.158433 0.194923
343 5.843879 2.656130 7.968753 -0.067296 -0.451635 0.256905
344 5.843860 3.718119 0.531638 0.033674 0.825861 -0.738791
345 5.843504 3.718668 1.593241 -0.261795 0.979496 0.734189
346 5.843302 3.718466 2.656105 0.890688 0.995594 -0.272725
347 5.843732 3.718530 3.718833 1.105362 0.107364 -0.133304
348 5.843811 3.718819 4.781335 -0.695709 0.027727 0.431086
349 5.843987 3.718571 5.844187 -0.568692 -0.110549 -0.637081
350 5.843406 3.718600 6.905937 0.311297 -0.016031 0.864543
351 5.843941 3.718658 7.968890 0.086010 0.090048 -0.044303
352 5.843315 4.781223 0.530740 0.403501 -0.244480 0.708282
353 5.843935 4.781760 1.593911 -0.146443 -0.827448 -0.732013
354 5.843712 4.781875 2.656132 -0.130382 -0.631820 0.355475
355 5.843965 4.781479 3.718831 -0.367375 -0.554441 0.174336
356 5.843955 4.781067 4.781639 0.069660 0.270632 -0.323083
357 5.843906 4.781140 5.843702 0.165271 -0.013732 0.492342
358 5.843356 4.780871 6.906309 0.496843 0.252404 0.008071
359 5.843738 4.781376 7.968850 -0.371586 0.105407 -0.563677
360 5.843932 5.844108 0.531623 -0.252931 -0.283113 -0.573361
361 5.843726 5.843484 1.593505 0.092545 1.133825 0.461223
362 5.843520 5.843971 2.656105 -0.253975 0.503007 0.266780
363 5.843915 5.843627 3.719134 0.589209 0.060977 -0.607634
364 5.843681 5.843783 4.781134 0.039945 -0.365379 0.238803
365 5.844107 5.843802 5.843498 -0.574659 -0.136618 0.256603
366 5.844125 5.843820 6.906388 0.004073 -0.708977 -0.387603
367 5.843772 5.844055 7.968734 -0.371838 -0.185784 0.520090
368 5.843870 6.906327 0.530803 -0.339313 0.041457 0.416226
369 5.843535 6.906641 1.594011 0.011024 -0.730490 -0.637813
370 5.844049 6.906329 2.656264 0.018697 0.308683 0.341378
371 5.843782 6.905967 3.718833 -0.283182 0.044065 0.113320
372 5.843745 6.906082 4.781429 0.334640 0.083490 -0.084579
373 5.844027 6.906269 5.843729 -0.157268 0.045309 0.402057
374 5.844250 6.905959 6.906460 -0.499904 0.687447 -0.455247
375 5.843798 6.906219 7.968517 0.147761 0.526250 -0.033513
376 5.844163 7.968522 0.531175 -0.472362 0.318755 0.200823
377 5.843844 7.968621 1.593167 -0.522571 0.830233 0.061353
378 5.843564 7.968929 2.655834 0.240722 0.092870 0.009536
379 5.843390 7.968662 3.718971 0.366822 -0.127134 -0.958707
380 5.843932 7.968645 4.780901 -0.246876 -0.394136 0.519830
381 5.843597 7.968736 5.843719 -0.248260 0.001613 -0.386178
382 5.843631 7.969119 6.906176 0.531791 -0.816200 0.696194
383 5.843676 7.968948 7.969439 0.234585 -0.049956 -0.780771
384 6.906246 0.531289 0.531372 -0.588597 0.022346 0.305876
385 6.906088 0.530465 1.593731 0.290253 0.564106 0.269239
386 6.905963 0.530989 2.656385 0.236954 0.664605 -0.004034
387 6.906071 0.531475 3.718892 0.444766 -0.356576 0.085469
388 6.906339 0.531365 4.781333 -0.479242 -0.267461 0.141442
389 6.905966 0.531139 5.843805 0.843327 0.395961 0.057515
390 6.906351 0.531020 6.906286 -0.141666 -0.521901 0.441597
391 6.906674 0.530982 7.969188 -0.362653 0.365918 -0.250667
392 6.906295 1.593515 0.531222 -0.420478 0.102992 -0.057054
393 6.906456 1.593555 1.593880 0.153386 -0.068430 -0.171179
394 6.905779 1.593545 2.656239 0.997760 -0.165444 0.135523
395 6.905985 1.593592 3.718750 -0.457250 0.580486 -0.004039
396 6.906263 1.593683 4.781247 0.472510 0.257190 0.007447
397 6.906715 1.594003 5.843763 -0.308671 -0.258594 0.211324
398 6.906142 1.593330 6.906491 0.039417 -0.287306 -0.409953
399 6.906134 1.593834 7.968543 -0.176419 -0.202022 0.398475
400 6.907000 2.656099 0.531260 -0.433294 -0.219649 0.819136
401 6.906313 2.656775 1.594249 -0.381989 -0.960811 -0.657225
402 6.906234 2.656164 2.656045 -0.257799 0.223106 0.309078
403 6.906306 2.656464 3.718347 -0.391012 -0.522494 0.347195
404 6.905849 2.656332 4.781441 0.838333 -0.210945 -0.263370
405 6.906014 2.656333 5.844045 0.466247 -0.031206 -0.322360
406 6.906407 2.655821 6.906015 -0.035679 -0.114412 0.853408
407 6.906291 2.656362 7.969099 -0.078955 0.246371 -0.526579
408 6.906509 3.718627 0.531356 -0.164794 -0.103898 -0.458737
409 6.905934 3.718474 1.593803 -0.032131 0.912811 -0.411707
410 6.906404 3.719119 2.655773 -0.713899 -0.434395 0.314522
411 6.906644 3.718571 3.718564 -0.260905 0.531351 -0.682317
412 6.905866 3.718692 4.780863 0.345656 -0.036011 0.209128
413 6.906158 3.718531 5.843801 0.733559 0.224885 -0.596543
414 6.906487 3.718679 6.906094 -0.322327 0.054809 -0.220620
415 6.906328 3.719002 7.968332 0.294788 -0.274791 0.315191
416 6.906097 4.781182 0.531330 -0.180834 0.295601 0.228323
417 6.906261 4.781382 1.593527 -0.372088 -0.309503 0.154133
418 6.905890 4.781221 2.656128 0.293879 0.097379 -0.018725
419 6.906383 4.781403 3.718833 0.107251 -0.700204 -0.257563
420 6.906702 4.781067 4.781177 -0.344254 -0.473814 0.027189
421 6.906567 4.781192 5.843620 -0.028592 -0.137258 0.132545
422 6.906191 4.781672 6.906337 -0.581018 -1.398634 0.305390
423 6.905701 4.781089 7.969265 0.385266 0.363466 -0.297315
424 6.906127 5.844114 0.530802 0.604693 -0.110682 0.100235
425 6.906649 5.843840 1.593492 -0.380768 -0.445511 -0.001685
426 6.905728 5.843463 2.656475 -0.059064 0.501519 -0.798546
427 6.906922 5.843377 3.718405 -0.116730 0.962448 0.143385
428 6.906304 5.843161 4.780848 -0.125581 0.793618 0.029292
429 6.906252 5.843778 5.843758 0.214239 -0.579099 -0.646393
430 6.906521 5.842842 6.906003 0.153493 1.523944 0.185227
431 6.906165 5.843719 7.968702 0.419633 -0.132877 -0.656695
432 6.906107 6.906530 0.531307 0.048556 0.386948 0.343649
433 6.905915 6.905751 1.593997 0.588468 0.549101 -0.354210
434 6.906550 6.906524 2.656066 0.066563 0.066200 0.712366
435 6.906255 6.906727 3.719057 -0.158480 -0.783175 -0.990217
436 6.906251 6.906709 4.780729 -0.757984 -1.061217 0.916668
437 6.906729 6.905729 5.843879 -0.302578 0.533485 -0.555903
438 6.905948 6.906513 6.906308 0.748401 -1.416135 0.219414
439 6.906122 6.906244 7.968885 -0.045198 0.013955 -0.015247
440 6.905871 7.969023 0.531163 0.876156 0.057455 0.315180
441 6.905979 7.968775 1.593515 0.076806 -1.307521 -0.064273
442 6.906117 7.969356 2.656047 0.061499 -0.558674 -0.050121
443 6.906123 7.968761 3.718740 -0.570388 0.679070 -0.240848
444 6.906207 7.968654 4.781217 0.250690 0.664410 0.124163
445 6.906157 7.968792 5.843839 0.209678 -0.647960 -0.141635
446 6.906314 7.968420 6.906218 -0.297688 0.325503 0.575022
447 6.906243 7.968799 7.969219 0.269722 -0.322924 -0.566386
448 7.968339 0.531006 0.531657 0.759050 1.026244 0.445788
449 7.968837 0.530751 1.594287 -0.222216 -0.585434 0.419045
450 7.968567 0.531376 2.656771 -0.291918 -0.143567 -0.112910
451 7.968824 0.531454 3.718605 -0.475772 0.402210 0.006424
452 7.968509 0.531573 4.780598 0.296886 0.023853 0.627861
453 7.968897 0.531042 5.843943 -0.321910 0.390726 -0.799320
454 7.968539 0.531225 6.906256 0.153776 1.192394 0.459220
455 7.969011 0.531765 7.969046 0.614676 -0.719888 0.133948
456 7.968752 1.593877 0.531420 -0.090534 -1.072645 0.191077
457 7.968572 1.593358 1.594160 0.119591 0.328725 0.123479
458 7.969189 1.594130 2.656595 -0.773085 -0.565930 -0.429064
459 7.968624 1.594129 3.718264 -0.217268 -0.130370 0.865661
460 7.969013 1.594019 4.781309 -0.105508 0.256778 -0.232943
461 7.968967 1.593852 5.844032 -0.300236 -0.481740 0.257716
462 7.968851 1.594313 6.906719 -0.122813 -0.142372 -0.216937
463 7.968725 1.593414 7.968689 -0.053796 0.623282 0.684746
464 7.968517 2.655533 0.531069 0.892407 1.351458 0.240107
465 7.968984 2.656756 1.593566 0.430148 -0.673231 -0.158790
466 7.968455 2.655917 2.656108 -0.147143 0.641359 -0.446664
467 7.968361 2.656268 3.718360 0.536396 -0.028069 0.121855
468 7.969197 2.656445 4.781148 -1.064073 -0.254244 -0.259847
469 7.968608 2.656090 5.843782 -0.172437 0.602728 -0.245802
470 7.968482 2.656634 6.906142 0.792815 0.322913 0.368632
471 7.968595 2.656044 7.969008 -0.171936 -0.332731 -0.526255
472 7.968720 3.719374 0.531294 0.431820 -1.302850 -0.956016
473 7.968683 3.718903 1.593247 -0.426595 0.568424 0.610812
474 7.968603 3.718702 2.656379 0.415866 -0.435949 -0.458899
475 7.968862 3.718355 3.718886 0.186636 0.899542 0.053690
476 7.968689 3.718420 4.781282 -0.257116 0.317713 0.520339
477 7.969173 3.719131 5.844163 -0.260111 -0.490058 0.022809
478 7.968976 3.718858 6.906618 0.597864 0.292378 -0.359725
479 7.968928 3.718553 7.968327 0.229613 -0.152817 0.807477
480 7.968853 4.781173 0.531613 -0.653289 -0.030723 0.267891
481 7.968201 4.781465 1.594354 0.347504 -0.480165 -0.406114
482 7.968751 4.781095 2.656051 0.408888 -0.236036 0.636982
483 7.968787 4.781790 3.718586 0.009817 -0.703785 -0.003684
484 7.968624 4.781060 4.781292 0.522444 -0.739871 -0.308473
485 7.968862 4.781251 5.843657 0.193096 0.102245 -0.011021
486 7.968506 4.781263 6.906125 0.111050 -0.095548 0.011345
487 7.968639 4.781136 7.968744 -0.438089 -0.062342 0.237652
488 7.969069 5.843025 0.531309 0.201563 0.383072 0.520297
489 7.968739 5.843324 1.594473 0.412608 0.855635 -0.538198
490 7.968456 5.843439 2.656324 -0.475486 0.520610 0.248878
491 7.969075 5.843907 3.718342 0.444573 0.376475 0.996580
492 7.968762 5.843168 4.781822 0.278318 0.127641 -0.610580
493 7.968626 5.843463 5.844029 0.144708 0.167612 0.082861
494 7.968774 5.843569 6.906010 0.140317 0.197237 0.381180
495 7.969070 5.843772 7.968614 -0.563067 -0.102855 -0.060302
496 7.968528 6.906045 0.531164 -0.063464 0.096688 0.439541
497 7.969282 6.906504 1.593957 -0.317237 -1.333645 -0.274305
498 7.968781 6.906662 2.656260 0.507256 -1.114346 0.284486
499 7.968577 6.906202 3.718829 0.007670 0.408400 0.129147
500 7.968017 6.906026 4.781450 0.671028 -0.328763 -0.448336
501 7.968612 6.906139 5.843411 0.858915 -0.074294 -0.120373
502 7.968719 6.906244 6.905606 -0.394211 0.413189 0.389884