ITEM: TIMESTEP
0
ITEM: NUMBER OF ATOMS
512
ITEM: BOX BOUNDS pp pp pp
0 9.000000
0 9.000000
0 9.000000
ITEM: ATOMS id x y z vx vy vz 
0 0.562503 0.562372 0.562169 -0.003909 -0.114559 -0.310965
1 0.562263 0.562601 1.687239 -0.197610 0.083405 -0.255326
2 0.562529 0.562713 2.812441 -0.008796 0.189094 -0.055270
3 0.562620 0.562541 3.937755 0.124017 0.050733 0.243338
4 0.562919 0.562347 5.062820 0.395198 -0.164067 0.301232
5 0.562361 0.562760 6.187470 -0.095987 0.257373 -0.004760
6 0.562626 0.562362 7.312631 0.128712 -0.125269 0.120930
7 0.562482 0.562286 8.437565 -0.012124 -0.233282 0.047772
8 0.562452 1.687672 0.562825 -0.017463 0.158813 0.304876
9 0.562688 1.687380 1.687181 0.236053 -0.096131 -0.281123
10 0.562042 1.687717 2.812396 -0.420923 0.186585 -0.110164
11 0.562570 1.687904 3.937458 0.055949 0.360553 -0.054757
12 0.562622 1.687077 5.062249 0.095813 -0.397430 -0.242301
13 0.562244 1.687386 6.187243 -0.243561 -0.095646 -0.243362
14 0.562444 1.687614 7.312573 -0.016030 0.101689 0.078499
15 0.562779 1.686998 8.438011 0.266574 -0.448053 0.483859
16 0.562231 2.812658 0.562645 -0.219293 0.133306 0.179860
17 0.562337 2.812686 1.688203 -0.167313 0.163952 0.630904
18 0.563034 2.812079 2.812133 0.497271 -0.368443 -0.321354
19 0.562668 2.812293 3.937044 0.147081 -0.183505 -0.463829
20 0.562948 2.812422 5.061842 0.425529 -0.096600 -0.624499
21 0.562748 2.812382 6.187457 0.195969 -0.096905 -0.082634
22 0.562339 2.812568 7.312214 -0.118441 0.043917 -0.247243
23 0.562218 2.812954 8.437834 -0.276295 0.404148 0.296525
24 0.562438 3.937143 0.562515 -0.050313 -0.325896 0.008012
25 0.562416 3.937475 1.687386 -0.081283 -0.023374 -0.103442
26 0.562511 3.937607 2.812522 -0.010029 0.076360 0.009503
27 0.562943 3.937172 3.937368 0.390496 -0.296545 -0.102750
28 0.562710 3.937397 5.062820 0.208862 -0.108364 0.281027
29 0.562424 3.937854 6.187412 -0.065368 0.288766 -0.067738
30 0.562072 3.937020 7.312417 -0.392756 -0.432507 -0.078299
31 0.562478 3.937799 8.437498 -0.002893 0.313714 -0.005433
32 0.562633 5.062324 0.562409 0.109401 -0.177271 -0.066518
33 0.562683 5.062259 1.687559 0.149354 -0.216441 0.056629
34 0.562540 5.062451 2.812609 0.010140 -0.028399 0.075329
35 0.562765 5.062744 3.936941 0.255709 0.205336 -0.491148
36 0.562706 5.062272 5.062765 0.196022 -0.228269 0.197104
37 0.562728 5.061905 6.187141 0.239102 -0.493522 -0.306307
38 0.562473 5.062553 7.312665 -0.038846 0.046659 0.147399
39 0.562638 5.062906 8.437776 0.132355 0.365523 0.255062
40 0.562753 6.187513 0.562380 0.236186 -0.009282 -0.155333
41 0.563005 6.187585 1.686697 0.485145 0.057825 -0.733509
42 0.562508 6.187727 2.812591 -0.002320 0.221820 0.031663
43 0.562969 6.187467 3.937183 0.440714 -0.034966 -0.292262
44 0.562382 6.187160 5.062321 -0.105745 -0.310871 -0.206389
45 0.562493 6.188184 6.186910 -0.000032 0.601101 -0.543372
46 0.562350 6.187931 7.312535 -0.181816 0.401065 -0.002296
47 0.562976 6.187118 8.437375 0.418041 -0.343998 -0.117961
48 0.563211 7.312198 0.562934 0.625095 -0.278712 0.399432
49 0.562596 7.312322 1.687493 0.118569 -0.158477 -0.002185
50 0.562750 7.312885 2.812150 0.253426 0.347290 -0.342572
51 0.562412 7.312120 3.937025 -0.088342 -0.354955 -0.464505
52 0.562903 7.312724 5.062183 0.342313 0.186210 -0.314077
53 0.562224 7.312601 6.187456 -0.293429 0.149763 -0.052975
54 0.562420 7.312623 7.312541 -0.045754 0.125908 0.038810
55 0.562920 7.312189 8.437577 0.378383 -0.316186 0.091966
56 0.562499 8.437386 0.562373 -0.008108 -0.124345 -0.090885
57 0.562587 8.437468 1.687759 0.095734 -0.032177 0.231328
58 0.562299 8.437194 2.812514 -0.201925 -0.250948 0.015389
59 0.561927 8.437384 3.937290 -0.508145 -0.121398 -0.165695
60 0.562438 8.437414 5.063022 -0.048846 -0.075372 0.466848
61 0.562498 8.438033 6.187527 -0.029755 0.503856 0.051750
62 0.562595 8.437386 7.312548 0.054339 -0.105730 0.058525
63 0.562089 8.437175 8.437773 -0.411348 -0.320886 0.244088
64 1.687249 0.562835 0.562125 -0.243263 0.330832 -0.335958
65 1.687597 0.562809 1.687366 0.078821 0.272056 -0.101067
66 1.686940 0.562652 2.813324 -0.512799 0.141405 0.783759
67 1.687716 0.562169 3.938321 0.212224 -0.312659 0.786365
68 1.687561 0.562739 5.062508 0.082844 0.234176 0.044391
69 1.688056 0.562406 6.187449 0.490451 -0.092843 -0.042122
70 1.687564 0.562438 7.312579 0.064271 -0.048490 0.082737
71 1.687455 0.562178 8.437770 -0.042355 -0.294898 0.229702
72 1.687531 1.687709 0.562488 0.010887 0.223444 0.008251
73 1.688143 1.687376 1.687461 0.597531 -0.108890 -0.039527
74 1.687831 1.687422 2.812396 0.241760 -0.069035 -0.090960
75 1.687102 1.687293 3.937643 -0.364851 -0.215125 0.110523
76 1.687643 1.687978 5.062223 0.121675 0.451519 -0.242873
77 1.687406 1.687400 6.187567 -0.097540 -0.099074 0.057338
78 1.687545 1.687534 7.312686 0.035704 0.006869 0.193291
79 1.687069 1.687651 8.437940 -0.362454 0.144537 0.407777
80 1.687753 2.812878 0.562565 0.201908 0.366669 0.067936
81 1.687360 2.812284 1.687466 -0.149299 -0.234523 -0.041107
82 1.687578 2.812387 2.812243 0.102582 -0.121330 -0.232909
83 1.687081 2.812321 3.937536 -0.372214 -0.170590 0.039316
84 1.687605 2.812565 5.062858 0.104030 0.088360 0.323038
85 1.687476 2.812448 6.187366 -0.026730 -0.048339 -0.097591
86 1.687882 2.812057 7.312652 0.333087 -0.401220 0.142860
87 1.687450 2.812943 8.437700 -0.075470 0.420980 0.192712
88 1.687405 3.937757 0.562022 -0.089102 0.239407 -0.449052
89 1.687417 3.936834 1.687429 -0.100764 -0.614204 -0.104770
90 1.687653 3.937179 2.812122 0.145166 -0.316552 -0.355797
91 1.687190 3.937550 3.937316 -0.241778 0.033868 -0.195091
92 1.687714 3.937621 5.062284 0.206053 0.114917 -0.216608
93 1.687591 3.937568 6.187300 0.068343 0.050859 -0.212409
94 1.687741 3.937522 7.312069 0.202495 -0.002512 -0.411210
95 1.687570 3.937726 8.437308 0.050479 0.237915 -0.219214
96 1.687539 5.062226 0.562234 0.024288 -0.256457 -0.209199
97 1.687450 5.062565 1.687865 -0.030465 0.024228 0.313098
98 1.687288 5.062091 2.812349 -0.207717 -0.377724 -0.139970
99 1.687630 5.062432 3.937080 0.117202 -0.061213 -0.380766
100 1.687734 5.062533 5.062685 0.244975 0.039061 0.164865
101 1.687559 5.062340 6.187835 0.060980 -0.149301 0.305476
102 1.687671 5.062460 7.312284 0.146656 -0.037705 -0.166229
103 1.687499 5.062756 8.437823 0.002007 0.265919 0.271465
104 1.687780 6.187092 0.562831 0.278793 -0.407471 0.307492
105 1.687822 6.187394 1.687615 0.332801 -0.098040 0.118076
106 1.687180 6.187717 2.812457 -0.316289 0.195352 -0.024055
107 1.687634 6.187465 3.937706 0.153869 -0.024325 0.199819
108 1.687199 6.187539 5.062786 -0.267326 0.026031 0.253362
109 1.687415 6.187331 6.187131 -0.084688 -0.174948 -0.305781
110 1.686841 6.187437 7.312881 -0.589146 -0.037394 0.330562
111 1.687458 6.187975 8.437515 -0.022921 0.453752 0.047396
112 1.687516 7.312026 0.562527 0.031453 -0.436258 0.015846
113 1.688217 7.312417 1.687618 0.648608 -0.082477 0.127455
114 1.687573 7.312851 2.812872 0.067978 0.336002 0.360786
115 1.687594 7.312743 3.937843 0.077908 0.219853 0.322575
116 1.687373 7.312228 5.062331 -0.104974 -0.252783 -0.126963
117 1.687443 7.312245 6.187736 -0.053173 -0.242106 0.213249
118 1.687786 7.312974 7.312628 0.266130 0.434320 0.114067
119 1.687647 7.312665 8.437204 0.155082 0.165013 -0.263245
120 1.687657 8.437823 0.562692 0.153522 0.288781 0.178747
121 1.687787 8.437438 1.687117 0.269038 -0.046160 -0.330753
122 1.687288 8.437650 2.812702 -0.201901 0.160292 0.166085
123 1.687534 8.437486 3.937521 0.019698 -0.016079 0.030443
124 1.687386 8.437362 5.062559 -0.111927 -0.127039 0.047278
125 1.686976 8.437463 6.187351 -0.460906 -0.050911 -0.154239
126 1.687272 8.437624 7.312061 -0.251689 0.132967 -0.386237
127 1.687144 8.437316 8.437947 -0.337448 -0.175224 0.395913
128 2.812199 0.562332 0.562971 -0.302004 -0.130596 0.441124
129 2.812539 0.562333 1.687595 0.050478 -0.152113 0.109758
130 2.812440 0.562410 2.812515 -0.087557 -0.056905 0.025733
131 2.812674 0.562350 3.937679 0.186384 -0.124761 0.169000
132 2.812682 0.562743 5.062626 0.154452 0.195990 0.118907
133 2.812287 0.562422 6.187406 -0.165461 -0.080203 -0.074960
134 2.812507 0.562670 7.312587 -0.006200 0.157578 0.080764
135 2.812466 0.562171 8.437614 -0.042859 -0.329173 0.129899
136 2.812187 1.687724 0.562359 -0.299401 0.185928 -0.144627
137 2.812562 1.687613 1.687232 0.087017 0.092075 -0.248506
138 2.811702 1.687463 2.812569 -0.703632 -0.022088 0.053611
139 2.812387 1.688008 3.937557 -0.121018 0.465103 0.050315
140 2.812180 1.686956 5.062382 -0.289925 -0.491689 -0.090220
141 2.812523 1.687546 6.187802 0.023104 0.034557 0.252437
142 2.812438 1.687618 7.312144 -0.045656 0.114434 -0.313136
143 2.812864 1.687027 8.437427 0.312341 -0.448586 -0.088868
144 2.812156 2.812288 0.562006 -0.295624 -0.172446 -0.472250
145 2.812229 2.812447 1.687702 -0.254452 -0.037859 0.157476
146 2.812628 2.812880 2.812418 0.115002 0.362391 -0.083555
147 2.812519 2.812654 3.937107 -0.006805 0.187996 -0.355011
148 2.812218 2.812355 5.062639 -0.248300 -0.168723 0.109922
149 2.812169 2.812406 6.187535 -0.302550 -0.080871 0.024174
150 2.812342 2.812471 7.312189 -0.116365 -0.011063 -0.311705
151 2.812151 2.812481 8.436868 -0.327085 -0.024109 -0.614434
152 2.812515 3.937725 0.563242 0.020569 0.188197 0.674156
153 2.812052 3.937607 1.687254 -0.416363 0.096107 -0.187590
154 2.812603 3.937873 2.812531 0.080633 0.361290 0.014563
155 2.812927 3.938017 3.937431 0.378175 0.492325 -0.062794
156 2.812519 3.937289 5.062463 0.005781 -0.214921 -0.050601
157 2.812286 3.937568 6.187207 -0.197112 0.036475 -0.270840
158 2.812573 3.937678 7.312442 0.106207 0.147075 -0.056684
159 2.812239 3.937818 8.437684 -0.227761 0.293721 0.201573
160 2.812134 5.062380 0.562097 -0.344753 -0.108551 -0.372840
161 2.812643 5.062513 1.687609 0.139079 0.051354 0.096490
162 2.812158 5.062582 2.812876 -0.329673 0.091243 0.346457
163 2.812215 5.062808 3.937473 -0.271943 0.303639 -0.024677
164 2.812972 5.062195 5.062120 0.432018 -0.318654 -0.375407
165 2.812431 5.062058 6.186924 -0.055523 -0.388287 -0.537964
166 2.812333 5.062231 7.312635 -0.116932 -0.248983 0.086324
167 2.812426 5.062613 8.437306 -0.071065 0.119032 -0.189401
168 2.812757 6.187272 0.562793 0.252738 -0.224254 0.283925
169 2.812855 6.188245 1.687979 0.345521 0.666971 0.449124
170 2.811979 6.187486 2.812462 -0.483542 -0.007917 0.000045
171 2.812682 6.187478 3.937746 0.170505 0.001273 0.203556
172 2.812776 6.186849 5.062112 0.236595 -0.623002 -0.321876
173 2.812323 6.187729 6.187916 -0.154008 0.188397 0.369511
174 2.812913 6.187221 7.312665 0.335114 -0.263926 0.161211
175 2.812327 6.187529 8.437335 -0.184371 0.025704 -0.128948
176 2.812173 7.312297 0.562061 -0.319475 -0.183971 -0.415569
177 2.812330 7.312225 1.687162 -0.137930 -0.218580 -0.328147
178 2.812286 7.312560 2.812546 -0.199020 0.079901 0.025738
179 2.812436 7.312612 3.937509 -0.055973 0.088806 0.027202
180 2.812314 7.312182 5.062866 -0.180712 -0.320008 0.349488
181 2.812733 7.312473 6.187805 0.188048 -0.024393 0.294793
182 2.812671 7.312566 7.312502 0.179024 0.043326 0.016845
183 2.812524 7.312372 8.437503 0.038489 -0.123062 -0.016932
184 2.812703 8.437748 0.562224 0.199482 0.208544 -0.240998
185 2.812598 8.437412 1.687785 0.097116 -0.101868 0.239767
186 2.812517 8.438061 2.812313 -0.009226 0.510262 -0.161530
187 2.812821 8.437238 3.937407 0.292657 -0.241207 -0.091025
188 2.812373 8.437499 5.062568 -0.099233 -0.003934 0.052911
189 2.812877 8.437259 6.187412 0.334121 -0.224266 -0.104099
190 2.811475 8.437428 7.311934 -0.953160 -0.054206 -0.521631
191 2.812647 8.437324 8.437448 0.129988 -0.182584 -0.087750
192 3.937171 0.562424 0.562021 -0.315498 -0.055846 -0.425646
193 3.937707 0.563134 1.687693 0.190823 0.586338 0.157508
194 3.937349 0.562512 2.812596 -0.127549 0.031530 0.093787
195 3.937883 0.562479 3.937442 0.351015 -0.018877 -0.055049
196 3.937186 0.562204 5.062384 -0.283042 -0.277291 -0.127012
197 3.937550 0.562083 6.187095 0.053589 -0.380193 -0.353145
198 3.937138 0.562556 7.312930 -0.346154 0.075507 0.375366
199 3.937300 0.562156 8.437558 -0.193811 -0.292187 0.051270
200 3.937158 1.688041 0.562741 -0.338665 0.491696 0.205364
201 3.937449 1.687876 1.687940 -0.034488 0.369415 0.402642
202 3.937652 1.688154 2.812315 0.105511 0.604635 -0.166846
203 3.937488 1.687248 3.937099 -0.028270 -0.218606 -0.381171
204 3.937381 1.687142 5.062329 -0.117889 -0.327116 -0.178293
205 3.937617 1.687439 6.187410 0.098734 -0.059537 -0.086518
206 3.937692 1.687933 7.312567 0.147544 0.383910 0.019930
207 3.937488 1.687771 8.436741 0.005615 0.218602 -0.676063
208 3.937586 2.812570 0.562723 0.079153 0.086618 0.208778
209 3.937469 2.812478 1.687556 -0.011394 -0.002374 0.059494
210 3.937367 2.812674 2.812472 -0.115599 0.191839 -0.049486
211 3.937405 2.812798 3.936912 -0.082737 0.269306 -0.533192
212 3.937565 2.812764 5.062570 0.027278 0.218533 0.031442
213 3.937489 2.812841 6.187386 -0.037232 0.297285 -0.097345
214 3.937673 2.812248 7.312567 0.154062 -0.205840 0.059641
215 3.937351 2.812281 8.437571 -0.132917 -0.201967 0.080819
216 3.937700 3.937420 0.562974 0.197339 -0.086568 0.433035
217 3.937406 3.937488 1.687483 -0.098351 -0.005611 -0.028689
218 3.937071 3.937568 2.811766 -0.397588 0.084467 -0.660355
219 3.937572 3.937712 3.937695 0.106550 0.217458 0.154746
220 3.937061 3.937387 5.062724 -0.396183 -0.095411 0.213230
221 3.937362 3.937268 6.187531 -0.134966 -0.187756 0.037125
222 3.938068 3.937579 7.312454 0.510277 0.045805 -0.038129
223 3.937625 3.937155 8.437573 0.090344 -0.318051 0.086401
224 3.937237 5.062146 0.562835 -0.247738 -0.311328 0.322588
225 3.937713 5.062639 1.688081 0.209820 0.120520 0.538540
226 3.937319 5.062829 2.812338 -0.185456 0.321667 -0.114395
227 3.937136 5.062750 3.937578 -0.361694 0.216348 0.084405
228 3.937308 5.062385 5.062935 -0.140782 -0.105304 0.407762
229 3.937595 5.062665 6.187635 0.086469 0.144418 0.171244
230 3.938092 5.062185 7.313069 0.527301 -0.279363 0.513966
231 3.937403 5.062661 8.437272 -0.085330 0.125329 -0.164606
232 3.937605 6.187828 0.561965 0.125093 0.304499 -0.507552
233 3.937640 6.187388 1.687027 0.124147 -0.086858 -0.484173
234 3.937649 6.187892 2.811954 0.106504 0.380267 -0.519947
235 3.937442 6.187062 3.937507 -0.053119 -0.395561 -0.044960
236 3.937491 6.187598 5.061965 0.000185 0.080021 -0.473761
237 3.937762 6.187580 6.187769 0.242845 0.078370 0.213191
238 3.937264 6.187568 7.312371 -0.193129 0.057354 -0.102476
239 3.936995 6.187355 8.437564 -0.458584 -0.147531 0.027673
240 3.937046 7.312939 0.562243 -0.440285 0.404229 -0.244361
241 3.937123 7.312712 1.687411 -0.339981 0.179081 -0.062380
242 3.937325 7.312638 2.813130 -0.179790 0.134312 0.565336
243 3.937453 7.312311 3.937387 -0.038344 -0.181903 -0.081676
244 3.937392 7.312394 5.062300 -0.097272 -0.082382 -0.194038
245 3.937047 7.312463 6.187356 -0.398375 -0.028198 -0.138648
246 3.937695 7.312714 7.312554 0.185484 0.201630 0.033486
247 3.937695 7.312036 8.437323 0.171008 -0.423185 -0.170311
248 3.937631 8.437267 0.562368 0.127147 -0.195300 -0.161784
249 3.937374 8.437312 1.686946 -0.099595 -0.131129 -0.499805
250 3.937186 8.437301 2.812757 -0.298507 -0.174898 0.205876
251 3.937477 8.437739 3.937466 -0.026586 0.208868 -0.020208
252 3.937995 8.437705 5.062443 0.440174 0.167709 -0.055511
253 3.937768 8.437530 6.187473 0.261826 0.005217 -0.026085
254 3.937351 8.437557 7.312512 -0.187526 0.065457 -0.007215
255 3.937734 8.437652 8.437149 0.213860 0.100715 -0.325283
256 5.062462 0.562676 0.562303 -0.049114 0.139498 -0.149816
257 5.062479 0.563031 1.687734 -0.015679 0.498440 0.193116
258 5.062798 0.562301 2.812299 0.259697 -0.211736 -0.135654
259 5.062357 0.562436 3.938303 -0.117004 -0.068214 0.699390
260 5.062404 0.562984 5.062018 -0.121261 0.463017 -0.437059
261 5.062864 0.562313 6.186733 0.324058 -0.148225 -0.725286
262 5.062152 0.562261 7.312433 -0.332658 -0.228948 -0.078422
263 5.062274 0.562177 8.437894 -0.246290 -0.268795 0.347477
264 5.062236 1.687084 0.562640 -0.243662 -0.372323 0.104753
265 5.062683 1.687608 1.687693 0.156812 0.117893 0.193146
266 5.062573 1.687272 2.812749 0.068726 -0.227302 0.222275
267 5.062262 1.687649 3.937167 -0.197482 0.131990 -0.310384
268 5.062625 1.687952 5.062126 0.112368 0.421335 -0.349620
269 5.062314 1.687532 6.187609 -0.178716 0.018124 0.077697
270 5.061991 1.687635 7.312382 -0.465523 0.123105 -0.135849
271 5.062469 1.688066 8.436810 -0.022544 0.491782 -0.627670
272 5.062848 2.812522 0.562386 0.315050 0.012975 -0.118383
273 5.063131 2.812367 1.687564 0.565122 -0.114810 0.045307
274 5.062474 2.812309 2.812357 -0.021157 -0.174291 -0.119983
275 5.062552 2.812472 3.937644 0.039607 0.003483 0.111857
276 5.062084 2.812227 5.062203 -0.369991 -0.217907 -0.272815
277 5.062264 2.812464 6.187308 -0.224548 -0.027285 -0.187139
278 5.062591 2.812765 7.312526 0.080409 0.249127 -0.003217
279 5.062929 2.812325 8.437128 0.406577 -0.131494 -0.342040
280 5.062797 3.937758 0.562354 0.283992 0.236762 -0.107530
281 5.062667 3.937533 1.687672 0.143565 0.034288 0.144457
282 5.062242 3.937718 2.812382 -0.252668 0.176232 -0.097039
283 5.062906 3.937946 3.937534 0.372142 0.395229 0.042770
284 5.062552 3.937698 5.062875 0.010452 0.169000 0.332432
285 5.062523 3.937577 6.187280 0.011754 0.074219 -0.172390
286 5.062297 3.937521 7.312726 -0.142141 0.009149 0.213891
287 5.062287 3.937529 8.437880 -0.208782 -0.002711 0.350825
288 5.062704 5.062511 0.562750 0.154034 0.021273 0.195065
289 5.062673 5.062746 1.687141 0.157660 0.208153 -0.311449
290 5.062398 5.062227 2.812606 -0.088034 -0.248557 0.065367
291 5.062143 5.062308 3.937177 -0.341245 -0.183393 -0.293542
292 5.062724 5.062534 5.062429 0.197237 0.049814 -0.083498
293 5.062587 5.062629 6.187433 0.082630 0.122120 -0.063981
294 5.062410 5.062046 7.312513 -0.031711 -0.389670 -0.007267
295 5.062630 5.062083 8.437175 0.119530 -0.368773 -0.284109
296 5.062827 6.187460 0.562700 0.301265 -0.014747 0.192335
297 5.062078 6.187121 1.687641 -0.359460 -0.337037 0.130974
298 5.062387 6.187302 2.812335 -0.077323 -0.195991 -0.135275
299 5.062297 6.186867 3.937655 -0.223604 -0.575612 0.115286
300 5.062396 6.187681 5.062108 -0.104661 0.190725 -0.333821
301 5.062744 6.187517 6.187807 0.237041 0.004949 0.258539
302 5.062554 6.187981 7.312439 0.035207 0.429776 -0.038492
303 5.062718 6.187704 8.437561 0.178206 0.159088 0.061534
304 5.062277 7.312965 0.562216 -0.224514 0.420223 -0.244202
305 5.062736 7.312412 1.687748 0.194501 -0.089142 0.210992
306 5.062260 7.312429 2.812475 -0.219264 -0.095299 -0.027429
307 5.062647 7.312719 3.937174 0.137670 0.153542 -0.301401
308 5.062702 7.312993 5.062434 0.199020 0.458967 -0.077567
309 5.062580 7.312160 6.187449 0.043876 -0.291299 -0.031219
310 5.062482 7.312758 7.312902 0.008581 0.240722 0.367369
311 5.062314 7.312349 8.437579 -0.147054 -0.129767 0.077860
312 5.062432 8.437492 0.562832 -0.053704 0.023216 0.293561
313 5.062705 8.437721 1.687301 0.195445 0.222865 -0.165538
314 5.062200 8.437080 2.812502 -0.290808 -0.394430 -0.018436
315 5.062082 8.437149 3.937254 -0.372247 -0.312128 -0.186441
316 5.062390 8.437504 5.063338 -0.074049 0.048929 0.749765
317 5.062498 8.437916 6.187445 -0.008401 0.354369 -0.006624
318 5.062425 8.437132 7.312521 -0.070492 -0.335562 0.015466
319 5.062374 8.437487 8.437492 -0.101759 -0.033636 0.009432
320 6.187496 0.562586 0.562547 0.000355 0.110117 0.063105
321 6.187390 0.562238 1.687865 -0.079367 -0.228325 0.337618
322 6.187389 0.561767 2.812566 -0.095331 -0.677468 0.087442
323 6.187387 0.562311 3.937659 -0.093817 -0.188486 0.150743
324 6.187101 0.562761 5.062588 -0.368174 0.271060 0.093889
325 6.187265 0.561908 6.187608 -0.200658 -0.531402 0.099356
326 6.187525 0.563048 7.312378 0.023427 0.518543 -0.104244
327 6.186840 0.562948 8.437544 -0.619179 0.393672 0.035019
328 6.187798 1.687928 0.562638 0.273850 0.395496 0.146517
329 6.187345 1.687511 1.687653 -0.140345 0.003665 0.109019
330 6.187404 1.687456 2.811766 -0.084892 -0.077787 -0.648640
331 6.187936 1.687298 3.937779 0.400605 -0.215877 0.207857
332 6.187556 1.687618 5.062249 0.052575 0.111277 -0.212619
333 6.187173 1.687493 6.187545 -0.308657 -0.050327 0.033870
334 6.187243 1.687358 7.312594 -0.286649 -0.084705 0.100852
335 6.187620 1.687653 8.437782 0.116228 0.169396 0.268943
336 6.187399 2.812519 0.562214 -0.087416 0.045915 -0.269839
337 6.187350 2.812648 1.687504 -0.095994 0.135237 -0.020115
338 6.187704 2.812407 2.812303 0.187542 -0.092659 -0.172251
339 6.187425 2.812024 3.937640 -0.056621 -0.440197 0.108961
340 6.187624 2.812331 5.062332 0.091984 -0.160799 -0.145536
341 6.187297 2.812164 6.187496 -0.183530 -0.297010 -0.007804
342 6.187268 2.812915 7.312593 -0.203475 0.398268 0.075588
343 6.187984 2.812712 8.437308 0.464805 0.221175 -0.183671
344 6.187603 3.937689 0.562491 0.109611 0.174220 0.009041
345 6.187434 3.937489 1.687869 -0.059927 -0.017077 0.352553
346 6.187579 3.937376 2.812833 0.090504 -0.114600 0.338505
347 6.187462 3.937543 3.937876 -0.007500 0.009393 0.362927
348 6.187157 3.937218 5.062623 -0.302722 -0.274936 0.159602
349 6.187438 3.937705 6.188151 -0.059452 0.168445 0.607220
350 6.187826 3.938060 7.312654 0.281585 0.530304 0.169366
351 6.187085 3.937939 8.437479 -0.396217 0.403323 -0.012669
352 6.187120 5.062544 0.562071 -0.332252 0.048087 -0.407298
353 6.187280 5.062192 1.687333 -0.186329 -0.293960 -0.171825
354 6.187779 5.062561 2.812504 0.255774 0.043566 0.015111
355 6.187536 5.062333 3.937923 0.022381 -0.131635 0.382227
356 6.187532 5.062300 5.062456 0.032311 -0.189263 -0.035292
357 6.187484 5.062433 6.187168 -0.010901 -0.068192 -0.315022
358 6.187966 5.062520 7.312301 0.400085 0.026914 -0.203478
359 6.187613 5.062381 8.437348 0.120220 -0.104971 -0.168758
360 6.187455 6.187470 0.562629 -0.041301 -0.007955 0.130070
361 6.187924 6.187249 1.687352 0.386545 -0.231216 -0.156608
362 6.187865 6.187346 2.811937 0.333873 -0.123995 -0.507011
363 6.186738 6.187902 3.937794 -0.689436 0.351333 0.225663
364 6.187307 6.187623 5.062171 -0.198577 0.090223 -0.274459
365 6.187561 6.187152 6.187703 0.080548 -0.316592 0.168505
366 6.187442 6.187081 7.312477 -0.042594 -0.386178 0.008649
367 6.187566 6.187124 8.437930 0.068375 -0.321899 0.396358
368 6.187519 7.312844 0.562599 -0.014803 0.322417 0.104503
369 6.187421 7.312755 1.687770 -0.071090 0.228679 0.249143
370 6.187668 7.312794 2.812488 0.161013 0.252005 0.003018
371 6.187599 7.312321 3.937505 0.100777 -0.150640 -0.013633
372 6.187915 7.312231 5.062156 0.398380 -0.213318 -0.309863
373 6.187340 7.312571 6.187575 -0.141664 0.058891 0.056373
374 6.187840 7.312377 7.312581 0.315019 -0.108592 0.077097
375 6.187778 7.313062 8.437511 0.247511 0.472729 0.018684
376 6.187529 8.437754 0.562463 0.015919 0.252091 -0.033567
377 6.187804 8.437703 1.687709 0.271898 0.184703 0.151236
378 6.187448 8.437318 2.811744 -0.063947 -0.186515 -0.679760
379 6.187689 8.437361 3.937494 0.173073 -0.145133 -0.027698
380 6.187539 8.438066 5.062775 0.027151 0.515529 0.224664
381 6.187096 8.437686 6.186997 -0.369647 0.141214 -0.453971
382 6.187596 8.438035 7.312313 0.065665 0.508676 -0.203178
383 6.187526 8.437059 8.437311 0.015802 -0.355291 -0.183401
384 7.312616 0.562487 0.562156 0.109630 -0.014138 -0.292848
385 7.312975 0.562622 1.687420 0.443323 0.117652 -0.099922
386 7.312303 0.562092 2.812289 -0.195399 -0.365649 -0.190072
387 7.312840 0.562827 3.937632 0.307941 0.329583 0.100303
388 7.312492 0.562462 5.062314 -0.015151 -0.019251 -0.185271
389 7.312386 0.562416 6.187040 -0.110247 -0.041589 -0.423712
390 7.312834 0.562354 7.312567 0.318005 -0.092985 0.063955
391 7.312350 0.563015 8.438013 -0.161458 0.472268 0.453447
392 7.312797 1.687440 0.562573 0.310342 -0.058552 0.107900
393 7.312324 1.687982 1.687937 -0.136082 0.437416 0.399616
394 7.312491 1.687243 2.812468 -0.030963 -0.238601 -0.002091
395 7.312792 1.687695 3.937595 0.296346 0.178435 0.077488
396 7.312409 1.687508 5.062353 -0.101601 0.019289 -0.140831
397 7.312438 1.687722 6.187237 -0.077342 0.197070 -0.236060
398 7.311885 1.688119 7.312707 -0.542411 0.554818 0.198399
399 7.312667 1.687457 8.437955 0.190247 -0.027642 0.426014
400 7.312278 2.812459 0.562747 -0.194948 -0.035120 0.239589
401 7.312711 2.812342 1.687629 0.173781 -0.152481 0.129827
402 7.312545 2.812853 2.812507 0.055415 0.286119 0.011298
403 7.312712 2.812176 3.937472 0.205274 -0.290580 -0.029408
404 7.312446 2.812798 5.062399 -0.031182 0.268827 -0.097238
405 7.312754 2.812477 6.187427 0.192392 -0.037089 -0.078557
406 7.312590 2.812456 7.312333 0.081331 -0.037023 -0.147883
407 7.312563 2.812265 8.437680 0.063130 -0.222284 0.167108
408 7.312504 3.937602 0.562584 0.019481 0.086208 0.064184
409 7.312329 3.936849 1.687161 -0.161334 -0.587444 -0.297642
410 7.313174 3.937000 2.812660 0.590537 -0.427151 0.125656
411 7.312659 3.937406 3.937412 0.143926 -0.081552 -0.067078
412 7.312659 3.937451 5.062640 0.137788 -0.030116 0.115755
413 7.312407 3.936938 6.187361 -0.088142 -0.502519 -0.107153
414 7.312360 3.936963 7.312793 -0.125212 -0.513630 0.267671
415 7.312363 3.937360 8.437625 -0.132258 -0.140178 0.130699
416 7.312580 5.062362 0.562783 0.041845 -0.125073 0.266256
417 7.312628 5.062767 1.687250 0.091271 0.219745 -0.204339
418 7.312642 5.062720 2.812687 0.125751 0.186986 0.172453
419 7.312624 5.062893 3.937790 0.124439 0.338465 0.276525
420 7.312334 5.062479 5.062583 -0.151513 -0.059237 0.078775
421 7.312511 5.062719 6.187278 0.037742 0.181426 -0.217500
422 7.312089 5.062025 7.312077 -0.374910 -0.466653 -0.375816
423 7.312734 5.062480 8.437947 0.226824 -0.027807 0.401287
424 7.312166 6.187434 0.563426 -0.311646 -0.074989 0.873310
425 7.312911 6.187624 1.687839 0.405384 0.156401 0.362589
426 7.312644 6.187717 2.812684 0.153581 0.199849 0.168141
427 7.312834 6.187198 3.937179 0.276809 -0.247407 -0.307558
428 7.312119 6.186732 5.062036 -0.340696 -0.700308 -0.442743
429 7.312771 6.187665 6.187401 0.259887 0.153102 -0.094506
430 7.312697 6.187326 7.312874 0.163849 -0.162743 0.350800
431 7.312455 6.187411 8.437788 -0.051496 -0.073995 0.323019
432 7.312051 7.312324 0.562044 -0.430705 -0.163276 -0.434765
433 7.312304 7.313140 1.687550 -0.182298 0.572230 0.046823
434 7.312908 7.312328 2.813005 0.401713 -0.129204 0.500630
435 7.312578 7.312657 3.938309 0.061503 0.149883 0.756879
436 7.312725 7.312505 5.062441 0.204266 -0.014619 -0.005077
437 7.312521 7.312296 6.187700 -0.028488 -0.155868 0.179813
438 7.312635 7.312878 7.312512 0.152618 0.348434 0.000882
439 7.312581 7.312636 8.437090 0.076579 0.124661 -0.394863
440 7.312355 8.437544 0.562754 -0.144025 0.031196 0.230788
441 7.312189 8.437142 1.687451 -0.266327 -0.290156 -0.021974
442 7.312471 8.437884 2.812733 -0.038096 0.321595 0.217962
443 7.312928 8.437956 3.937664 0.410555 0.437967 0.173459
444 7.312433 8.437834 5.062802 -0.047299 0.300876 0.270842
445 7.312455 8.437983 6.187261 -0.062129 0.425689 -0.205995
446 7.312113 8.437760 7.312420 -0.370872 0.245840 -0.083287
447 7.312454 8.437618 8.437517 -0.059141 0.138163 0.023725
448 8.437605 0.562800 0.562596 0.100689 0.282825 0.071819
449 8.437803 0.563139 1.687152 0.286098 0.577129 -0.322885
450 8.437305 0.562848 2.812278 -0.185521 0.340330 -0.207002
451 8.437593 0.562748 3.937747 0.105949 0.229370 0.217864
452 8.437728 0.562545 5.062583 0.227103 0.019027 0.065910
453 8.437605 0.562105 6.187076 0.083327 -0.393514 -0.381156
454 8.437721 0.562307 7.312523 0.222824 -0.170579 0.001516
455 8.437642 0.562525 8.437516 0.120703 0.041648 0.019893
456 8.438030 1.687405 0.562866 0.491697 -0.068828 0.339249
457 8.438203 1.687609 1.687745 0.641055 0.125531 0.227334
458 8.437122 1.687816 2.812207 -0.368043 0.313352 -0.247188
459 8.437727 1.687550 3.937658 0.224344 0.051268 0.136529
460 8.437052 1.687287 5.062638 -0.407509 -0.153544 0.143034
461 8.437375 1.686975 6.187714 -0.128540 -0.490555 0.198859
462 8.438175 1.687445 7.312413 0.583258 -0.046171 -0.075111
463 8.438179 1.687906 8.437386 0.638981 0.353318 -0.093178
464 8.437782 2.812586 0.562668 0.233221 0.057088 0.148579
465 8.437248 2.812435 1.687131 -0.228790 -0.071643 -0.322159
466 8.437626 2.812700 2.812658 0.142915 0.193383 0.114164
467 8.437845 2.812386 3.937213 0.331586 -0.120625 -0.237934
468 8.437779 2.813296 5.062833 0.273655 0.713873 0.295987
469 8.436877 2.812633 6.187614 -0.544302 0.090292 0.125704
470 8.437709 2.812792 7.312630 0.188301 0.256390 0.140342
471 8.437128 2.812117 8.437825 -0.351381 -0.315379 0.309987
472 8.437720 3.937136 0.563143 0.197446 -0.309676 0.586220
473 8.437484 3.937137 1.687496 -0.024880 -0.348967 0.016694
474 8.436949 3.937410 2.812227 -0.468118 -0.075984 -0.245820
475 8.437564 3.937107 3.937579 0.086159 -0.355384 0.084918
476 8.437678 3.937473 5.063042 0.179579 0.019590 0.501494
477 8.437499 3.937396 6.187606 -0.008401 -0.078087 0.101102
478 8.437207 3.937337 7.312048 -0.293637 -0.139527 -0.406014
479 8.437762 3.937817 8.437518 0.231844 0.270880 0.024898
480 8.437229 5.062866 0.562585 -0.236436 0.302798 0.032660
481 8.437190 5.062142 1.686665 -0.267556 -0.351476 -0.767415
482 8.437173 5.062386 2.812253 -0.288105 -0.101712 -0.256037
483 8.437713 5.062668 3.937661 0.212915 0.098873 0.144230
484 8.437456 5.062599 5.062687 -0.040221 0.081033 0.171475
485 8.438101 5.062718 6.187403 0.559475 0.189881 -0.091947
486 8.437015 5.062361 7.312233 -0.462992 -0.145838 -0.250765
487 8.437667 5.062494 8.437429 0.171202 -0.014601 -0.074386
488 8.437395 6.187199 0.562707 -0.097962 -0.239296 0.181127
489 8.437729 6.187333 1.687445 0.252257 -0.199206 -0.051525
490 8.437648 6.187628 2.812221 0.141675 0.092427 -0.243386
491 8.437653 6.186785 3.937782 0.176842 -0.621510 0.250637
492 8.437861 6.187341 5.062636 0.306117 -0.164469 0.139749
493 8.437702 6.187412 6.187549 0.197111 -0.079857 0.054320
494 8.437227 6.187249 7.312538 -0.245514 -0.220432 0.034047
495 8.437217 6.187014 8.437432 -0.236998 -0.469221 -0.050679
496 8.437009 7.312847 0.562479 -0.435326 0.319824 -0.000771
497 8.437498 7.311859 1.687663 -0.007003 -0.601845 0.146873
498 8.437961 7.312088 2.812480 0.451850 -0.359833 0.009563
499 8.437248 7.312976 3.937936 -0.230386 0.405265 0.403110
500 8.437068 7.311934 5.062659 -0.363605 -0.536616 0.172200
501 8.436682 7.312294 6.187641 -0.756790 -0.200452 0.129594
502 8.437786 7.312809 7.312372 0.266186 0.277132 -0.098078