ITEM: TIMESTEP
0
ITEM: NUMBER OF ATOMS
512
ITEM: BOX BOUNDS pp pp pp
0 9.000000
0 9.000000
0 9.000000
ITEM: ATOMS id x y z vx vy vz 
0 0.562176 0.563065 0.562351 -0.324310 0.564722 -0.149358
1 0.562567 0.562556 1.687385 0.067065 0.056086 -0.114729
2 0.562326 0.562879 2.812249 -0.173732 0.378951 -0.250899
3 0.562403 0.562399 3.937129 -0.096809 -0.101207 -0.371119
4 0.562639 0.562485 5.062719 0.138545 -0.015440 0.219369
5 0.563150 0.562843 6.187103 0.650206 0.342909 -0.397397
6 0.562887 0.562219 7.312548 0.387163 -0.281395 0.048060
7 0.562155 0.563046 8.437676 -0.344532 0.545762 0.175911
8 0.562136 1.687792 0.562494 -0.364356 0.292199 -0.006201
9 0.562124 1.687541 1.687633 -0.375824 0.040595 0.133385
10 0.562626 1.687492 2.812439 0.126370 -0.007880 -0.060827
11 0.562397 1.687443 3.937814 -0.103021 -0.056849 0.313783
12 0.562663 1.687387 5.062081 0.163347 -0.113459 -0.418592
13 0.562289 1.687277 6.187539 -0.210570 -0.222482 0.038701
14 0.562681 1.686864 7.312325 0.180590 -0.635478 -0.174647
15 0.562298 1.687239 8.437526 -0.202156 -0.260474 0.025565
16 0.562500 2.812483 0.562036 -0.000350 -0.016771 -0.464394
17 0.562401 2.812891 1.687542 -0.098907 0.390742 0.042344
18 0.562347 2.812717 2.812636 -0.152713 0.216500 0.136029
19 0.562703 2.812368 3.937877 0.202565 -0.132455 0.376635
20 0.562526 2.812564 5.062718 0.025603 0.064135 0.218456
21 0.562494 2.812547 6.187435 -0.006106 0.046861 -0.064630
22 0.562701 2.812772 7.312246 0.201412 0.272452 -0.253940
23 0.562460 2.812613 8.437529 -0.040058 0.113405 0.029324
24 0.562629 3.937668 0.562962 0.128627 0.167537 0.461705
25 0.562804 3.937522 1.687634 0.303816 0.022346 0.133666
26 0.562542 3.937184 2.812043 0.041853 -0.315641 -0.457115
27 0.562749 3.937506 3.937775 0.249106 0.005784 0.275347
28 0.562605 3.937118 5.063001 0.104545 -0.382321 0.500453
29 0.562411 3.937279 6.186842 -0.089197 -0.220541 -0.658107
30 0.562890 3.937512 7.312556 0.389954 0.011742 0.055593
31 0.562691 3.937402 8.437345 0.190657 -0.097930 -0.155263
32 0.562566 5.062334 0.562191 0.066318 -0.165641 -0.308857
33 0.562821 5.062495 1.687251 0.321222 -0.004920 -0.249403
34 0.562379 5.062570 2.812747 -0.120847 0.070269 0.247020
35 0.562342 5.062570 3.937644 -0.157515 0.070023 0.143497
36 0.562609 5.062404 5.062383 0.109350 -0.096178 -0.116556
37 0.562319 5.062721 6.187269 -0.181097 0.221391 -0.231218
38 0.562478 5.062596 7.312337 -0.021865 0.096286 -0.163103
39 0.562607 5.062690 8.437769 0.107416 0.190365 0.268719
40 0.561884 6.187936 0.562618 -0.615870 0.435608 0.117761
41 0.562055 6.187880 1.687784 -0.445294 0.380063 0.283926
42 0.562412 6.186987 2.812459 -0.088328 -0.513034 -0.040885
43 0.562603 6.187603 3.937761 0.102995 0.102612 0.260990
44 0.562655 6.187622 5.062464 0.155093 0.122467 -0.036358
45 0.562398 6.188046 6.187383 -0.101646 0.545660 -0.116833
46 0.562599 6.187559 7.312759 0.098878 0.058740 0.259286
47 0.562679 6.187116 8.437760 0.179033 -0.383723 0.259589
48 0.562378 7.312819 0.562314 -0.122246 0.319406 -0.186202
49 0.562308 7.312291 1.687242 -0.191691 -0.209011 -0.257954
50 0.562348 7.312440 2.812620 -0.151947 -0.059891 0.119515
51 0.562639 7.312213 3.937288 0.138625 -0.287119 -0.211643
52 0.562231 7.312691 5.062452 -0.268993 0.191028 -0.048325
53 0.562729 7.312509 6.187384 0.229066 0.009483 -0.116287
54 0.563068 7.312368 7.312566 0.567918 -0.132439 0.066301
55 0.562752 7.312477 8.437554 0.251488 -0.022754 0.054400
56 0.562579 8.437814 0.562615 0.078830 0.313704 0.114920
57 0.562262 8.437779 1.687386 -0.238395 0.279457 -0.114327
58 0.562528 8.437227 2.812528 0.027849 -0.272678 0.028303
59 0.562556 8.436905 3.937382 0.055785 -0.594878 -0.118337
60 0.562183 8.437571 5.062737 -0.317307 0.070579 0.237388
61 0.561911 8.437390 6.187273 -0.588967 -0.109638 -0.227219
62 0.562268 8.437989 7.312587 -0.232163 0.489384 0.086920
63 0.562642 8.437324 8.437279 0.141903 -0.175584 -0.221263
64 1.687129 0.562757 0.562119 -0.371345 0.257221 -0.380846
65 1.687313 0.562427 1.687404 -0.187365 -0.072679 -0.096125
66 1.687425 0.562408 2.812358 -0.075093 -0.092131 -0.141983
67 1.687175 0.562449 3.937435 -0.325009 -0.050860 -0.065043
68 1.687405 0.562892 5.062601 -0.094531 0.391610 0.100800
69 1.687876 0.561975 6.187697 0.376420 -0.524736 0.197206
70 1.687921 0.562122 7.312926 0.421429 -0.378022 0.425806
71 1.687694 0.561996 8.437439 0.193628 -0.504318 -0.061365
72 1.687296 1.687207 0.562769 -0.204489 -0.292643 0.268929
73 1.687368 1.687566 1.687641 -0.132145 0.066167 0.141165
74 1.687595 1.687409 2.812018 0.094996 -0.091005 -0.481521
75 1.687098 1.687682 3.937301 -0.402180 0.181519 -0.198523
76 1.687420 1.688216 5.062287 -0.080414 0.716252 -0.213370
77 1.687602 1.687872 6.187354 0.102350 0.372166 -0.145701
78 1.687604 1.687651 7.313117 0.104456 0.151240 0.617101
79 1.687592 1.687542 8.437602 0.091753 0.041511 0.102226
80 1.687458 2.812534 0.562775 -0.041881 0.033811 0.275101
81 1.687820 2.811968 1.687606 0.320364 -0.531877 0.106388
82 1.688140 2.812426 2.812064 0.640052 -0.073518 -0.436339
83 1.687480 2.812383 3.937644 -0.019518 -0.117157 0.143910
84 1.687704 2.812667 5.062074 0.203928 0.166924 -0.425932
85 1.687112 2.812615 6.187326 -0.387584 0.114522 -0.174427
86 1.687921 2.812194 7.311893 0.421168 -0.306087 -0.606886
87 1.687427 2.812334 8.437646 -0.072876 -0.165667 0.145934
88 1.687331 3.937441 0.562445 -0.168884 -0.058951 -0.055008
89 1.687320 3.937735 1.687816 -0.180478 0.235135 0.315761
90 1.687397 3.937568 2.812513 -0.103407 0.067907 0.013051
91 1.687618 3.937655 3.937485 0.118421 0.154750 -0.015190
92 1.687504 3.937227 5.062443 0.003774 -0.273241 -0.056545
93 1.687441 3.937729 6.187722 -0.059125 0.228531 0.221567
94 1.687773 3.937335 7.312142 0.273304 -0.165269 -0.357723
95 1.687668 3.937162 8.437607 0.167877 -0.338460 0.106508
96 1.687299 5.062989 0.562480 -0.201106 0.488929 -0.020091
97 1.687644 5.062598 1.687673 0.143847 0.098331 0.173048
98 1.687705 5.062406 2.812758 0.205124 -0.094295 0.258197
99 1.687287 5.062184 3.937172 -0.213141 -0.316437 -0.327516
100 1.687358 5.062101 5.062552 -0.141987 -0.399372 0.052077
101 1.687361 5.062457 6.187627 -0.139255 -0.042757 0.126792
102 1.687544 5.062255 7.312422 0.043708 -0.244938 -0.077977
103 1.687416 5.062342 8.437305 -0.084278 -0.157950 -0.195042
104 1.687819 6.187765 0.562483 0.318808 0.264536 -0.016558
105 1.687153 6.187670 1.687550 -0.346682 0.169865 0.049548
106 1.687313 6.187436 2.812730 -0.187457 -0.063755 0.230088
107 1.687894 6.187259 3.937400 0.393842 -0.241227 -0.100113
108 1.687348 6.187110 5.062246 -0.152371 -0.390480 -0.254195
109 1.687601 6.187445 6.187475 0.101145 -0.054882 -0.024828
110 1.687497 6.187382 7.312361 -0.003495 -0.117616 -0.139476
111 1.687500 6.187417 8.437197 -0.000393 -0.083222 -0.303267
112 1.687562 7.312296 0.562560 0.062206 -0.203701 0.059695
113 1.687564 7.312794 1.687490 0.064026 0.293970 -0.010159
114 1.687324 7.312429 2.812429 -0.175765 -0.070566 -0.071303
115 1.687611 7.312508 3.937377 0.110950 0.007913 -0.122541
116 1.687580 7.312393 5.062525 0.079511 -0.106687 0.025151
117 1.686928 7.312684 6.187710 -0.571961 0.183799 0.210114
118 1.687440 7.312763 7.312452 -0.059718 0.262902 -0.048096
119 1.687345 7.312609 8.437066 -0.154979 0.108500 -0.433685
120 1.687567 8.437533 0.562408 0.066637 0.033324 -0.091848
121 1.687781 8.437061 1.687551 0.280542 -0.438647 0.051242
122 1.687386 8.437980 2.812797 -0.114421 0.479899 0.296890
123 1.687550 8.437817 3.936999 0.049887 0.316653 -0.500636
124 1.687333 8.437968 5.062246 -0.167150 0.468448 -0.253842
125 1.687848 8.437992 6.187487 0.347924 0.491896 -0.012515
126 1.687459 8.437111 7.313023 -0.041381 -0.388922 0.523227
127 1.687196 8.437206 8.437574 -0.303948 -0.294061 0.074459
128 2.812219 0.562629 0.562569 -0.281282 0.128507 0.069033
129 2.812436 0.562383 1.687827 -0.063973 -0.117276 0.326838
130 2.812228 0.562314 2.812572 -0.272441 -0.185691 0.071748
131 2.812697 0.562644 3.937397 0.196599 0.144446 -0.103302
132 2.812816 0.562128 5.062374 0.316385 -0.372048 -0.125977
133 2.812930 0.562825 6.187452 0.430030 0.325384 -0.048294
134 2.812508 0.562121 7.312797 0.007843 -0.378689 0.297361
135 2.812424 0.562037 8.437014 -0.076446 -0.463302 -0.486372
136 2.812333 1.687318 0.562596 -0.167177 -0.181722 0.096278
137 2.812514 1.687902 1.687798 0.014348 0.402070 0.297787
138 2.812431 1.687647 2.812644 -0.069414 0.147115 0.144440
139 2.812078 1.687541 3.937075 -0.421923 0.041287 -0.424803
140 2.812624 1.687096 5.062358 0.124255 -0.404035 -0.142262
141 2.812380 1.687467 6.187432 -0.119621 -0.033465 -0.068326
142 2.812964 1.687682 7.312492 0.464400 0.181776 -0.008259
143 2.812639 1.687387 8.437514 0.138841 -0.113260 0.013934
144 2.812349 2.813063 0.562474 -0.151109 0.562937 -0.025836
145 2.812506 2.812780 1.687440 0.005943 0.279579 -0.059785
146 2.812370 2.812195 2.812908 -0.130012 -0.305123 0.407953
147 2.812227 2.812228 3.937500 -0.272900 -0.271848 0.000071
148 2.812590 2.812036 5.062083 0.089549 -0.464284 -0.417322
149 2.812382 2.812305 6.187912 -0.118221 -0.195260 0.412312
150 2.812395 2.812733 7.312411 -0.104982 0.233171 -0.088632
151 2.812316 2.811895 8.437698 -0.184486 -0.604470 0.197978
152 2.812253 3.937872 0.562387 -0.246705 0.372326 -0.112673
153 2.812157 3.937424 1.687629 -0.342960 -0.076112 0.128907
154 2.812237 3.937575 2.812491 -0.263147 0.075203 -0.009062
155 2.812006 3.937571 3.937514 -0.493650 0.070819 0.014296
156 2.812466 3.937829 5.062627 -0.033716 0.329217 0.126661
157 2.812822 3.937441 6.187154 0.322306 -0.059103 -0.346403
158 2.812044 3.937639 7.312225 -0.455691 0.138639 -0.275454
159 2.812553 3.937348 8.437541 0.053287 -0.152171 0.041145
160 2.812306 5.062455 0.562652 -0.193991 -0.044912 0.152076
161 2.812416 5.062453 1.686968 -0.084103 -0.047300 -0.531698
162 2.812260 5.062238 2.812696 -0.239948 -0.262368 0.195788
163 2.812221 5.063013 3.937166 -0.278630 0.512959 -0.333531
164 2.812686 5.062172 5.062868 0.186038 -0.327991 0.368185
165 2.812652 5.062771 6.187462 0.151701 0.271265 -0.038047
166 2.812512 5.062700 7.312377 0.012257 0.199502 -0.123445
167 2.812856 5.062271 8.438053 0.356367 -0.228612 0.552559
168 2.812581 6.187564 0.562611 0.080951 0.064276 0.111307
169 2.812797 6.187235 1.687491 0.297331 -0.265401 -0.009246
170 2.812642 6.187382 2.812644 0.141836 -0.118114 0.143503
171 2.812330 6.187289 3.937671 -0.170372 -0.210644 0.170866
172 2.812275 6.187164 5.062548 -0.224572 -0.335908 0.047533
173 2.812917 6.187770 6.187448 0.417036 0.270183 -0.051559
174 2.812397 6.187088 7.312873 -0.102908 -0.411537 0.372777
175 2.812487 6.187332 8.437645 -0.012825 -0.168101 0.145028
176 2.812921 7.312444 0.562774 0.421131 -0.055707 0.274459
177 2.812829 7.312184 1.687102 0.329072 -0.316205 -0.398418
178 2.812541 7.312360 2.812074 0.041052 -0.140245 -0.426256
179 2.812553 7.312824 3.937996 0.053163 0.323953 0.495456
180 2.812745 7.312403 5.062690 0.244597 -0.096760 0.189555
181 2.812686 7.312630 6.187561 0.185699 0.129805 0.060985
182 2.812279 7.312603 7.313122 -0.221119 0.102456 0.621470
183 2.812569 7.312170 8.437798 0.069070 -0.330321 0.298201
184 2.812093 8.437517 0.562611 -0.407188 0.016533 0.110642
185 2.812191 8.437025 1.687299 -0.309237 -0.475176 -0.200619
186 2.812447 8.437194 2.812554 -0.052731 -0.305702 0.053978
187 2.812255 8.437483 3.937384 -0.245449 -0.016638 -0.116297
188 2.812411 8.437598 5.062105 -0.088707 0.097766 -0.395025
189 2.812672 8.437461 6.187283 0.172009 -0.039204 -0.217182
190 2.812636 8.436938 7.312975 0.136031 -0.562427 0.475224
191 2.812572 8.437771 8.437684 0.071908 0.271423 0.184268
192 3.937613 0.562512 0.562854 0.113139 0.012164 0.354243
193 3.937267 0.562557 1.687589 -0.233446 0.056668 0.089346
194 3.937995 0.562495 2.812448 0.494449 -0.004717 -0.051736
195 3.937658 0.562397 3.937478 0.158123 -0.103474 -0.022418
196 3.937773 0.562863 5.062297 0.272706 0.362474 -0.202802
197 3.937675 0.562695 6.187109 0.175160 0.195032 -0.390703
198 3.937378 0.562651 7.312641 -0.121861 0.150719 0.141172
199 3.937595 0.562282 8.437582 0.094812 -0.218088 0.081696
200 3.937533 1.687585 0.562289 0.033002 0.084651 -0.211023
201 3.937395 1.687677 1.687720 -0.104707 0.176753 0.219804
202 3.937062 1.687519 2.812216 -0.438351 0.019386 -0.284122
203 3.937364 1.687809 3.937537 -0.136442 0.309403 0.037123
204 3.937347 1.687217 5.062433 -0.153257 -0.283122 -0.066760
205 3.937746 1.687889 6.187268 0.245841 0.388546 -0.232464
206 3.937309 1.687780 7.312922 -0.190804 0.280116 0.422116
207 3.937757 1.687345 8.437574 0.256497 -0.155376 0.074404
208 3.937758 2.812788 0.562927 0.257949 0.288402 0.426757
209 3.937661 2.812348 1.687754 0.160716 -0.151639 0.253909
210 3.937749 2.812291 2.812703 0.249158 -0.208782 0.203130
211 3.937742 2.813022 3.937181 0.241864 0.521570 -0.318630
212 3.937253 2.812604 5.062682 -0.246870 0.104380 0.181785
213 3.937122 2.812495 6.187406 -0.378017 -0.004972 -0.093669
214 3.937861 2.812485 7.312406 0.360776 -0.014841 -0.094146
215 3.937194 2.812665 8.437441 -0.305977 0.164552 -0.058629
216 3.937607 3.937110 0.562792 0.107146 -0.389618 0.291572
217 3.937472 3.937684 1.687597 -0.028180 0.183893 0.097253
218 3.937691 3.937464 2.812534 0.191404 -0.036049 0.034128
219 3.937272 3.937501 3.937514 -0.227924 0.001465 0.013518
220 3.937416 3.937481 5.062684 -0.083878 -0.018762 0.184034
221 3.937418 3.937390 6.187520 -0.082014 -0.109747 0.019530
222 3.937055 3.937714 7.312681 -0.445239 0.213502 0.180531
223 3.937478 3.937621 8.437480 -0.022479 0.120831 -0.020033
224 3.937511 5.062205 0.562411 0.011292 -0.295137 -0.089337
225 3.937625 5.062444 1.687578 0.124974 -0.056063 0.078293
226 3.937301 5.062627 2.812459 -0.199232 0.126958 -0.040996
227 3.937563 5.062388 3.937345 0.062868 -0.111545 -0.155007
228 3.937479 5.062024 5.062661 -0.020859 -0.476222 0.161406
229 3.937624 5.062557 6.187337 0.123738 0.056939 -0.163391
230 3.937522 5.062571 7.312455 0.022011 0.070608 -0.045421
231 3.937756 5.063121 8.437557 0.256237 0.620859 0.056533
232 3.937403 6.187737 0.562148 -0.096671 0.237453 -0.351778
233 3.937370 6.187242 1.687717 -0.129642 -0.257746 0.217058
234 3.937270 6.187318 2.812678 -0.229958 -0.181538 0.177735
235 3.937500 6.187747 3.937601 -0.000464 0.247415 0.100798
236 3.937721 6.187982 5.062727 0.220876 0.481515 0.226713
237 3.937697 6.187849 6.187615 0.197347 0.349326 0.115427
238 3.937633 6.187963 7.312030 0.133459 0.463357 -0.469524
239 3.936993 6.187442 8.437389 -0.507473 -0.058159 -0.111207
240 3.937637 7.312781 0.562550 0.137463 0.281120 0.049564
241 3.937586 7.312690 1.687565 0.086034 0.190053 0.065456
242 3.937690 7.312595 2.812456 0.190059 0.094951 -0.044359
243 3.937456 7.311994 3.937739 -0.044436 -0.505919 0.239422
244 3.937102 7.312579 5.062349 -0.397607 0.078605 -0.150839
245 3.937354 7.312193 6.187096 -0.146048 -0.306639 -0.404112
246 3.938050 7.312331 7.312427 0.549813 -0.169160 -0.073325
247 3.937367 7.312284 8.437223 -0.133405 -0.215670 -0.276651
248 3.937737 8.437361 0.562520 0.237083 -0.139328 0.019630
249 3.937306 8.437341 1.687668 -0.193876 -0.158743 0.168344
250 3.937126 8.437666 2.812815 -0.374048 0.166009 0.315397
251 3.937264 8.437358 3.938090 -0.236385 -0.142378 0.589802
252 3.937870 8.437119 5.062861 0.369683 -0.381413 0.361243
253 3.937618 8.437912 6.187380 0.118272 0.411813 -0.119496
254 3.937506 8.437419 7.312909 0.006368 -0.080655 0.408521
255 3.937674 8.437675 8.437110 0.174473 0.174796 -0.390303
256 5.062032 0.562436 0.562176 -0.468438 -0.064358 -0.324122
257 5.062554 0.562831 1.687212 0.053966 0.331085 -0.287806
258 5.062242 0.562688 2.812446 -0.258408 0.187594 -0.054214
259 5.063043 0.562166 3.937924 0.543295 -0.334357 0.423716
260 5.062932 0.562624 5.062384 0.431885 0.123586 -0.115937
261 5.062355 0.562454 6.187574 -0.145393 -0.046239 0.074108
262 5.062223 0.562822 7.312167 -0.277221 0.321567 -0.333468
263 5.062601 0.562514 8.437568 0.100497 0.014043 0.067819
264 5.062362 1.687585 0.562901 -0.138374 0.084959 0.400669
265 5.062027 1.687449 1.687504 -0.473312 -0.051447 0.003792
266 5.062584 1.687412 2.812507 0.083662 -0.087549 0.006627
267 5.062031 1.687132 3.937511 -0.468496 -0.368018 0.011266
268 5.062769 1.688020 5.062689 0.269136 0.520281 0.188916
269 5.062745 1.687390 6.187313 0.245105 -0.110234 -0.186617
270 5.062413 1.687527 7.312384 -0.086798 0.027251 -0.116404
271 5.062328 1.687471 8.437180 -0.172151 -0.028719 -0.320444
272 5.062592 2.811997 0.562743 0.092479 -0.503303 0.242610
273 5.062493 2.812353 1.687281 -0.007144 -0.147180 -0.218506
274 5.062672 2.812585 2.812431 0.171842 0.085169 -0.068533
275 5.062065 2.812778 3.937699 -0.434850 0.278214 0.199292
276 5.062838 2.812735 5.062950 0.337778 0.235434 0.450294
277 5.062384 2.812525 6.187568 -0.116237 0.025194 0.067692
278 5.062247 2.812895 7.312715 -0.252573 0.394991 0.214668
279 5.062984 2.812324 8.437808 0.483969 -0.176106 0.308007
280 5.062757 3.937771 0.562476 0.256772 0.271018 -0.023905
281 5.063042 3.937314 1.688103 0.542167 -0.186213 0.603294
282 5.062739 3.937309 2.812505 0.239100 -0.190937 0.005136
283 5.062354 3.937588 3.937710 -0.145535 0.087771 0.209809
284 5.062252 3.937750 5.062645 -0.248428 0.250321 0.144686
285 5.061941 3.937632 6.187062 -0.558814 0.132085 -0.438389
286 5.062417 3.938198 7.312629 -0.083015 0.697902 0.129438
287 5.062369 3.937406 8.437513 -0.130763 -0.093708 0.013169
288 5.062239 5.062122 0.562356 -0.260824 -0.378274 -0.143669
289 5.062324 5.062714 1.687628 -0.175785 0.214137 0.127635
290 5.062417 5.062592 2.812702 -0.082976 0.092329 0.201991
291 5.062759 5.062249 3.937832 0.259043 -0.251097 0.331837
292 5.062719 5.062234 5.062575 0.219171 -0.265746 0.075327
293 5.062225 5.062443 6.187921 -0.275314 -0.056837 0.421388
294 5.062572 5.062268 7.312525 0.072377 -0.232272 0.024972
295 5.062614 5.062281 8.437449 0.113899 -0.218875 -0.050526
296 5.062253 6.187713 0.561765 -0.246826 0.213166 -0.734684
297 5.062708 6.186901 1.688083 0.207603 -0.599119 0.582970
298 5.062167 6.187106 2.812557 -0.332668 -0.393777 0.057008
299 5.062614 6.187606 3.937223 0.113479 0.106387 -0.277296
300 5.062732 6.187732 5.062561 0.232385 0.231924 0.061220
301 5.062386 6.187393 6.187215 -0.114242 -0.107283 -0.285469
302 5.062809 6.187167 7.312057 0.308803 -0.333360 -0.443156
303 5.062284 6.187192 8.437461 -0.215603 -0.307608 -0.039117
304 5.062609 7.312023 0.561982 0.109072 -0.477139 -0.517998
305 5.062662 7.312379 1.687423 0.161862 -0.121045 -0.077436
306 5.062199 7.312218 2.812688 -0.301185 -0.281669 0.187958
307 5.062637 7.312529 3.937564 0.137012 0.028628 0.064354
308 5.062785 7.312686 5.062266 0.285088 0.185543 -0.233623
309 5.062679 7.312413 6.187744 0.179033 -0.086546 0.244157
310 5.062515 7.312813 7.312450 0.015072 0.312961 -0.050308
311 5.062591 7.312459 8.437554 0.090760 -0.040505 0.054186
312 5.062896 8.436769 0.562797 0.395501 -0.730652 0.297063
313 5.061998 8.437483 1.687746 -0.501827 -0.017294 0.246224
314 5.062129 8.437862 2.812603 -0.371165 0.362119 0.102963
315 5.061955 8.437412 3.937509 -0.544524 -0.088123 0.009459
316 5.062202 8.437669 5.062157 -0.297634 0.168839 -0.343239
317 5.063060 8.437443 6.187475 0.560364 -0.056657 -0.025440
318 5.062598 8.437848 7.312414 0.098348 0.348267 -0.085987
319 5.062676 8.437784 8.437286 0.176098 0.283988 -0.213754
320 6.187608 0.562419 0.561911 0.107796 -0.080550 -0.588934
321 6.187722 0.562336 1.687409 0.222060 -0.164348 -0.090595
322 6.187657 0.562660 2.812757 0.156514 0.160424 0.256832
323 6.187772 0.562313 3.937415 0.272032 -0.186825 -0.084842
324 6.187273 0.562490 5.062326 -0.227140 -0.009561 -0.174449
325 6.187278 0.562095 6.187231 -0.222245 -0.404479 -0.268641
326 6.187379 0.562871 7.312531 -0.121194 0.370937 0.030571
327 6.187051 0.562811 8.437583 -0.448781 0.310492 0.082931
328 6.187142 1.687268 0.562822 -0.357825 -0.231815 0.322374
329 6.187421 1.687485 1.687318 -0.078978 -0.014928 -0.181686
330 6.187612 1.687178 2.812278 0.111613 -0.322446 -0.222052
331 6.187022 1.687612 3.937592 -0.477918 0.111728 0.091621
332 6.187727 1.687479 5.062455 0.227348 -0.021490 -0.044628
333 6.187380 1.687300 6.187621 -0.119850 -0.199638 0.121284
334 6.187535 1.687486 7.312688 0.034666 -0.014036 0.188446
335 6.188290 1.687398 8.437860 0.789833 -0.101699 0.360053
336 6.187522 2.812857 0.562337 0.022297 0.356724 -0.162529
337 6.187420 2.812193 1.687623 -0.079563 -0.306551 0.122861
338 6.187720 2.812329 2.812556 0.220346 -0.170854 0.056194
339 6.187556 2.812137 3.937137 0.056333 -0.362737 -0.363107
340 6.187256 2.812822 5.062781 -0.244192 0.321818 0.280788
341 6.187479 2.812803 6.187966 -0.020718 0.302473 0.466465
342 6.187817 2.812500 7.312977 0.316676 0.000271 0.477267
343 6.187032 2.812181 8.437282 -0.468358 -0.318827 -0.217609
344 6.187949 3.937318 0.562592 0.448734 -0.182185 0.092062
345 6.187233 3.937218 1.687341 -0.266569 -0.282167 -0.158903
346 6.187882 3.937381 2.812517 0.382373 -0.119434 0.017387
347 6.187634 3.937549 3.937217 0.133975 0.049053 -0.282671
348 6.187571 3.938080 5.062302 0.071343 0.579539 -0.198165
349 6.187385 3.937112 6.186954 -0.115526 -0.387853 -0.546203
350 6.187229 3.937142 7.312374 -0.271429 -0.357794 -0.125618
351 6.187594 3.937533 8.437330 0.094270 0.032647 -0.170444
352 6.187227 5.062133 0.562520 -0.273336 -0.367186 0.020049
353 6.187147 5.061904 1.687188 -0.353345 -0.596109 -0.312246
354 6.187106 5.062299 2.812785 -0.393524 -0.201206 0.285103
355 6.187283 5.062967 3.937481 -0.216984 0.466663 -0.019169
356 6.187485 5.062846 5.062218 -0.014924 0.346085 -0.281560
357 6.187245 5.062026 6.187320 -0.255427 -0.474329 -0.180076
358 6.187186 5.062645 7.312735 -0.313979 0.145172 0.235382
359 6.187749 5.062227 8.437534 0.248777 -0.272892 0.034242
360 6.187310 6.187358 0.562412 -0.189750 -0.141835 -0.087566
361 6.188026 6.187086 1.687079 0.525553 -0.413676 -0.421459
362 6.187238 6.187219 2.812042 -0.262284 -0.281432 -0.457779
363 6.186967 6.187536 3.937708 -0.532622 0.036499 0.208020
364 6.187480 6.187362 5.062781 -0.019855 -0.137858 0.280916
365 6.187729 6.187924 6.187115 0.228841 0.424356 -0.385361
366 6.187443 6.187795 7.312546 -0.057367 0.294941 0.045539
367 6.187779 6.187331 8.437151 0.278847 -0.168988 -0.348508
368 6.187475 7.312725 0.562163 -0.024711 0.225266 -0.336775
369 6.187206 7.312517 1.687506 -0.294123 0.016516 0.006211
370 6.187628 7.312919 2.812913 0.128420 0.418744 0.412519
371 6.188006 7.313021 3.937861 0.505499 0.520788 0.361252
372 6.188022 7.312459 5.062467 0.521497 -0.040838 -0.032870
373 6.187372 7.312691 6.187190 -0.128402 0.191107 -0.309560
374 6.188012 7.312252 7.312136 0.512023 -0.248153 -0.364079
375 6.187215 7.312697 8.437891 -0.285147 0.197273 0.391039
376 6.186953 8.437566 0.561964 -0.547409 0.066284 -0.535634
377 6.188001 8.437679 1.687667 0.501131 0.178699 0.166969
378 6.187479 8.437354 2.812527 -0.021293 -0.146228 0.026663
379 6.187547 8.437713 3.936960 0.047021 0.212961 -0.539709
380 6.187400 8.437493 5.062677 -0.100075 -0.007069 0.176818
381 6.187681 8.437800 6.187443 0.180798 0.299705 -0.057340
382 6.187400 8.437638 7.312343 -0.100059 0.138442 -0.156706
383 6.187846 8.437462 8.437555 0.345745 -0.038371 0.055460
384 7.312808 0.562951 0.562286 0.308393 0.450558 -0.214301
385 7.312219 0.562123 1.687604 -0.281369 -0.376946 0.103597
386 7.312454 0.562634 2.812704 -0.046335 0.134370 0.203827
387 7.312646 0.562501 3.937236 0.145676 0.001266 -0.263940
388 7.312657 0.562337 5.062449 0.156919 -0.162540 -0.050930
389 7.312475 0.562563 6.188106 -0.024898 0.063447 0.606337
390 7.312611 0.562320 7.312753 0.111136 -0.179893 0.253222
391 7.312646 0.562229 8.437501 0.146243 -0.270707 0.001224
392 7.312820 1.687122 0.562500 0.320016 -0.377592 -0.000026
393 7.312646 1.687426 1.687625 0.145518 -0.073504 0.125090
394 7.312651 1.686651 2.812756 0.151498 -0.849253 0.255521
395 7.312492 1.687339 3.937613 -0.008065 -0.161107 0.112520
396 7.312525 1.687904 5.062127 0.024911 0.403485 -0.372800
397 7.312394 1.686906 6.187478 -0.105764 -0.593654 -0.022369
398 7.312570 1.687265 7.312542 0.070295 -0.234525 0.041746
399 7.312909 1.687827 8.437417 0.408759 0.327456 -0.083392
400 7.312352 2.812392 0.562248 -0.148287 -0.107936 -0.251623
401 7.311879 2.812882 1.687908 -0.621427 0.382144 0.407894
402 7.313031 2.812495 2.812830 0.530764 -0.005029 0.329853
403 7.312596 2.812324 3.937247 0.095514 -0.176165 -0.253165
404 7.312686 2.812134 5.062597 0.185982 -0.366206 0.097073
405 7.312649 2.812408 6.186977 0.148588 -0.092295 -0.523252
406 7.312767 2.812602 7.312413 0.266846 0.102173 -0.087010
407 7.312922 2.812272 8.437519 0.421769 -0.228013 0.018976
408 7.312910 3.938125 0.562266 0.409657 0.624759 -0.234444
409 7.312515 3.937584 1.687840 0.014751 0.084338 0.340407
410 7.312413 3.937658 2.812319 -0.087186 0.158252 -0.181201
411 7.312413 3.938042 3.937366 -0.086474 0.541671 -0.133784
412 7.312702 3.937394 5.062245 0.201948 -0.106073 -0.254700
413 7.311939 3.937620 6.187207 -0.560970 0.119782 -0.293204
414 7.312473 3.937243 7.312443 -0.027292 -0.256697 -0.057223
415 7.312416 3.937325 8.437446 -0.084398 -0.174864 -0.053922
416 7.312597 5.062669 0.563050 0.097254 0.169256 0.550401
417 7.312476 5.062542 1.687282 -0.024106 0.041721 -0.217897
418 7.312629 5.062057 2.812760 0.129297 -0.443172 0.260175
419 7.313059 5.062670 3.937647 0.559432 0.170327 0.146838
420 7.312285 5.062323 5.062916 -0.215396 -0.176752 0.416420
421 7.312375 5.062703 6.187454 -0.125116 0.202575 -0.045552
422 7.312410 5.062596 7.312438 -0.090100 0.095823 -0.061506
423 7.312060 5.062472 8.437593 -0.439838 -0.028076 0.092710
424 7.312457 6.187344 0.562663 -0.042552 -0.155876 0.162655
425 7.312732 6.187391 1.687776 0.231675 -0.109465 0.276451
426 7.312256 6.187316 2.812486 -0.243840 -0.184501 -0.013503
427 7.312787 6.187817 3.937615 0.287280 0.317226 0.115351
428 7.312285 6.187326 5.062406 -0.214880 -0.174195 -0.093781
429 7.312440 6.187774 6.187228 -0.059995 0.274050 -0.272064
430 7.312755 6.187570 7.312225 0.255155 0.070028 -0.274784
431 7.312441 6.187468 8.436781 -0.059248 -0.031695 -0.718520
432 7.312730 7.312893 0.562170 0.229933 0.393284 -0.329660
433 7.312017 7.312923 1.687407 -0.482693 0.422828 -0.092910
434 7.312630 7.312352 2.813132 0.130003 -0.147601 0.632144
435 7.312827 7.313106 3.937396 0.327034 0.606097 -0.103527
436 7.312500 7.312588 5.062551 0.000078 0.088008 0.050851
437 7.313036 7.312342 6.187522 0.535492 -0.157573 0.022235
438 7.312417 7.312300 7.312339 -0.083249 -0.199782 -0.161351
439 7.312208 7.313078 8.437607 -0.292325 0.578460 0.106918
440 7.312133 8.437831 0.562090 -0.366576 0.330764 -0.410368
441 7.312396 8.437303 1.687691 -0.104319 -0.196835 0.190856
442 7.312828 8.437469 2.812592 0.328470 -0.031041 0.091982
443 7.312215 8.437755 3.937307 -0.285007 0.255195 -0.192953
444 7.312469 8.437307 5.062683 -0.031186 -0.192650 0.182737
445 7.312264 8.437190 6.187365 -0.236147 -0.310255 -0.134594
446 7.312257 8.437269 7.312786 -0.243429 -0.230769 0.286125
447 7.312785 8.437757 8.437773 0.284770 0.256698 0.273443
448 8.437494 0.562436 0.562606 -0.006313 -0.063662 0.105948
449 8.437563 0.562005 1.687748 0.062722 -0.494575 0.248311
450 8.436894 0.562597 2.812321 -0.605851 0.096985 -0.178569
451 8.437080 0.562675 3.937516 -0.420079 0.174982 0.016109
452 8.437323 0.562580 5.062611 -0.177093 0.080380 0.110618
453 8.437967 0.561875 6.187958 0.467260 -0.625029 0.457601
454 8.437273 0.562858 7.312299 -0.227373 0.357589 -0.200740
455 8.437306 0.562318 8.437643 -0.194304 -0.181708 0.143435
456 8.437187 1.687522 0.562052 -0.312715 0.022284 -0.447637
457 8.437436 1.687775 1.687516 -0.064183 0.275017 0.015563
458 8.437862 1.687563 2.812271 0.361901 0.063035 -0.229223
459 8.436951 1.687194 3.937550 -0.549407 -0.305670 0.049971
460 8.437278 1.687403 5.062692 -0.222327 -0.096542 0.192168
461 8.438028 1.687976 6.187356 0.527938 0.476362 -0.144219
462 8.437842 1.687553 7.312362 0.341520 0.052951 -0.137637
463 8.437293 1.687078 8.437452 -0.206797 -0.421992 -0.047594
464 8.437517 2.812493 0.562606 0.017461 -0.007114 0.105878
465 8.437515 2.812691 1.687459 0.015346 0.191146 -0.040695
466 8.437896 2.812537 2.812775 0.396043 0.037076 0.274678
467 8.437314 2.812292 3.937355 -0.186125 -0.208146 -0.144946
468 8.437240 2.812426 5.062742 -0.260335 -0.073691 0.241542
469 8.437871 2.812490 6.187583 0.370684 -0.009628 0.082908
470 8.437773 2.812551 7.312592 0.272745 0.050572 0.092208
471 8.437443 2.812727 8.437364 -0.056691 0.227303 -0.135778
472 8.437483 3.937766 0.562471 -0.017220 0.265681 -0.029261
473 8.437580 3.937149 1.687475 0.080294 -0.351441 -0.024844
474 8.437147 3.937222 2.812215 -0.353404 -0.278274 -0.285176
475 8.437987 3.937929 3.937195 0.486695 0.429156 -0.304536
476 8.437380 3.937869 5.062477 -0.119626 0.368931 -0.023279
477 8.437487 3.937256 6.187219 -0.013422 -0.243528 -0.281018
478 8.437944 3.937799 7.312532 0.444356 0.298747 0.032400
479 8.437923 3.937651 8.437838 0.423441 0.151253 0.338131
480 8.437560 5.062327 0.562474 0.059800 -0.172528 -0.025766
481 8.437536 5.062541 1.687100 0.036011 0.041057 -0.400150
482 8.437493 5.062509 2.812740 -0.006912 0.008609 0.239643
483 8.437240 5.062804 3.937954 -0.259764 0.304094 0.453766
484 8.437748 5.062937 5.062708 0.247865 0.436714 0.208071
485 8.437173 5.062371 6.187789 -0.327337 -0.129005 0.289097
486 8.437029 5.062468 7.312256 -0.471466 -0.032357 -0.244093
487 8.437272 5.062477 8.437906 -0.227813 -0.022523 0.406455
488 8.437000 6.187733 0.562773 -0.499749 0.233153 0.273113
489 8.437623 6.187582 1.687635 0.122970 0.082271 0.135117
490 8.437328 6.187612 2.812801 -0.171781 0.111848 0.300677
491 8.437666 6.188035 3.937521 0.165661 0.534896 0.021107
492 8.437606 6.187620 5.062204 0.106381 0.120338 -0.296070
493 8.437148 6.187531 6.187645 -0.351523 0.031196 0.145477
494 8.437350 6.187379 7.312662 -0.150224 -0.120587 0.161628
495 8.437368 6.186893 8.437544 -0.132252 -0.606572 0.043974
496 8.437612 7.312193 0.562165 0.112007 -0.306877 -0.335023
497 8.437253 7.312607 1.687499 -0.246615 0.107490 -0.000931
498 8.437749 7.312841 2.812642 0.248625 0.341085 0.142114
499 8.437628 7.312800 3.937216 0.128164 0.299931 -0.284342
500 8.437466 7.312928 5.062483 -0.034132 0.427911 -0.017232
501 8.437302 7.312843 6.186836 -0.198244 0.343380 -0.664061
502 8.437334 7.312531 7.312438 -0.166278 0.031270 -0.062169