ITEM: TIMESTEP
0
ITEM: NUMBER OF ATOMS
512
ITEM: BOX BOUNDS pp pp pp
0 9.000000
0 9.000000
0 9.000000
ITEM: ATOMS id x y z vx vy vz 
0 0.562475 0.562630 0.562981 -0.013121 0.115283 0.438181
1 0.562890 0.562440 1.687306 0.384544 -0.057519 -0.170077
2 0.562571 0.562360 2.812139 0.067991 -0.094348 -0.321826
3 0.562705 0.562354 3.937839 0.182181 -0.121508 0.310017
4 0.562111 0.562723 5.062845 -0.345734 0.222316 0.320454
5 0.562509 0.562347 6.187303 0.062413 -0.128052 -0.164088
6 0.562267 0.562116 7.312494 -0.214800 -0.314657 -0.004878
7 0.562566 0.562965 8.437719 0.017897 0.425659 0.222946
8 0.562326 1.687096 0.562811 -0.163456 -0.361210 0.275161
9 0.562451 1.687643 1.687500 -0.092443 0.129242 0.008476
10 0.562333 1.688130 2.812338 -0.130281 0.568346 -0.132619
11 0.562234 1.687513 3.937806 -0.233344 -0.003620 0.274915
12 0.562477 1.687716 5.062563 -0.045988 0.223119 0.087470
13 0.562342 1.687566 6.187839 -0.147738 0.033230 0.307148
14 0.562730 1.687861 7.312415 0.198153 0.323371 -0.069199
15 0.562427 1.687906 8.437324 -0.076145 0.396115 -0.149879
16 0.562248 2.812542 0.562561 -0.238148 0.004224 0.035092
17 0.562759 2.812550 1.687308 0.198698 0.053575 -0.184334
18 0.562302 2.812527 2.812235 -0.194127 0.067699 -0.259505
19 0.562200 2.812333 3.937282 -0.278288 -0.152782 -0.214310
20 0.562723 2.812845 5.062448 0.183101 0.342430 -0.053437
21 0.562621 2.812113 6.187576 0.107305 -0.365195 0.052584
22 0.562485 2.812776 7.312221 -0.019419 0.268322 -0.262317
23 0.561845 2.812584 8.437265 -0.566071 0.090905 -0.224150
24 0.562363 3.937168 0.562670 -0.110958 -0.312072 0.155042
25 0.562456 3.937537 1.687603 -0.047180 0.044397 0.071780
26 0.562241 3.937770 2.811889 -0.227827 0.238703 -0.553344
27 0.562397 3.937506 3.937449 -0.072918 -0.011857 -0.083385
28 0.562281 3.937869 5.062323 -0.192285 0.333078 -0.165962
29 0.562519 3.937184 6.187436 0.007502 -0.302121 -0.075257
30 0.562382 3.937479 7.312320 -0.096953 -0.010200 -0.171475
31 0.562425 3.937405 8.437407 -0.054614 -0.065796 -0.084798
32 0.562740 5.062252 0.563045 0.230522 -0.239518 0.505141
33 0.561888 5.062678 1.687536 -0.549875 0.172380 0.058835
34 0.562321 5.062337 2.812536 -0.160995 -0.127265 0.037895
35 0.562273 5.062305 3.937540 -0.207464 -0.152917 0.026276
36 0.562897 5.062074 5.062231 0.362040 -0.375655 -0.229606
37 0.562448 5.062604 6.187773 -0.057624 0.084533 0.237527
38 0.562581 5.062418 7.312510 0.106722 -0.063945 0.028929
39 0.562563 5.062858 8.437639 0.090965 0.329227 0.152133
40 0.562631 6.187543 0.562073 0.143023 0.027834 -0.381673
41 0.561734 6.187665 1.687532 -0.692856 0.145620 -0.005089
42 0.562646 6.187687 2.812220 0.139609 0.137673 -0.240306
43 0.562433 6.188000 3.937772 -0.071954 0.447296 0.222589
44 0.562130 6.187365 5.062237 -0.329618 -0.112301 -0.252356
45 0.562427 6.187586 6.186917 -0.077796 0.091604 -0.550423
46 0.562957 6.187779 7.312393 0.400421 0.254723 -0.118757
47 0.562644 6.187658 8.437659 0.106166 0.144964 0.119042
48 0.562461 7.312536 0.563322 -0.029512 0.051246 0.786220
49 0.562778 7.312219 1.688288 0.290851 -0.259253 0.725846
50 0.562833 7.312026 2.811890 0.284218 -0.418601 -0.505828
51 0.562744 7.312502 3.937770 0.206580 0.035429 0.194041
52 0.562963 7.313167 5.062015 0.418686 0.610531 -0.423289
53 0.562296 7.312686 6.187590 -0.185714 0.178298 0.081057
54 0.562078 7.312600 7.312933 -0.395490 0.121785 0.396790
55 0.562584 7.312204 8.437455 0.063380 -0.281615 0.017513
56 0.562374 8.437840 0.562341 -0.120196 0.318945 -0.165291
57 0.562462 8.437275 1.687131 -0.033019 -0.221715 -0.352671
58 0.562535 8.437589 2.812350 0.022807 0.051583 -0.155265
59 0.562432 8.437722 3.937442 -0.071504 0.193469 -0.058978
60 0.562449 8.437691 5.062556 -0.048712 0.216535 0.037802
61 0.562635 8.437654 6.187289 0.113446 0.142145 -0.185596
62 0.562602 8.437876 7.312588 0.098840 0.328954 0.069299
63 0.562127 8.437102 8.437488 -0.309790 -0.356216 -0.014685
64 1.687820 0.562393 0.562639 0.318786 -0.097482 0.124277
65 1.687910 0.562325 1.687551 0.381003 -0.149683 0.066875
66 1.687544 0.562533 2.812807 0.041177 0.078849 0.264687
67 1.687462 0.562404 3.937132 -0.042035 -0.060175 -0.307772
68 1.687458 0.562528 5.062785 -0.050759 0.030376 0.247726
69 1.688026 0.562454 6.187625 0.499301 -0.057956 0.134242
70 1.687862 0.562236 7.312629 0.331227 -0.230675 0.118472
71 1.686974 0.562268 8.437388 -0.452221 -0.210512 -0.088548
72 1.687099 1.687724 0.562075 -0.373920 0.207790 -0.402335
73 1.687006 1.687736 1.687531 -0.469632 0.202857 0.032521
74 1.687650 1.688103 2.813021 0.132506 0.541300 0.463867
75 1.687625 1.687482 3.937236 0.127927 -0.006655 -0.208889
76 1.686982 1.687621 5.062656 -0.460044 0.104126 0.129487
77 1.687245 1.687470 6.187493 -0.220411 -0.051985 0.012021
78 1.687557 1.687632 7.312750 0.035961 0.115136 0.210586
79 1.687583 1.687599 8.437160 0.073249 0.080045 -0.316046
80 1.687413 2.812680 0.562262 -0.082339 0.192016 -0.236160
81 1.687104 2.812451 1.687306 -0.329878 -0.024057 -0.182271
82 1.687412 2.812312 2.812610 -0.107373 -0.133524 0.111384
83 1.687567 2.812848 3.937934 0.039534 0.299691 0.390456
84 1.687679 2.812344 5.062271 0.181726 -0.157347 -0.174836
85 1.687653 2.812042 6.187761 0.112547 -0.422377 0.245025
86 1.687837 2.812655 7.312856 0.282957 0.154914 0.324254
87 1.687643 2.812526 8.437262 0.096198 0.025917 -0.210412
88 1.687720 3.937872 0.562113 0.201320 0.339549 -0.336672
89 1.687411 3.937712 1.687837 -0.053415 0.181007 0.280327
90 1.687351 3.937710 2.812319 -0.163938 0.170953 -0.151627
91 1.687352 3.937144 3.937406 -0.134151 -0.295223 -0.107305
92 1.687724 3.937054 5.062239 0.169209 -0.438852 -0.269521
93 1.687556 3.937414 6.186926 0.032648 -0.090623 -0.537109
94 1.687661 3.937657 7.312491 0.110993 0.158071 -0.034733
95 1.687697 3.937468 8.437510 0.146371 -0.030099 -0.010253
96 1.687383 5.062340 0.562622 -0.104880 -0.106545 0.133691
97 1.687404 5.062326 1.687837 -0.093709 -0.158062 0.294090
98 1.687350 5.062275 2.812129 -0.147774 -0.183723 -0.326780
99 1.687737 5.062773 3.937418 0.215922 0.226645 -0.093610
100 1.687757 5.061970 5.062457 0.253238 -0.514312 -0.039805
101 1.687241 5.062671 6.187541 -0.221639 0.130337 0.039642
102 1.687846 5.062648 7.312595 0.281256 0.146086 0.096066
103 1.687773 5.062472 8.437661 0.245386 0.001144 0.156738
104 1.688018 6.187943 0.562529 0.460974 0.413640 0.017749
105 1.687443 6.187294 1.687332 -0.088919 -0.178703 -0.134535
106 1.687545 6.187733 2.812902 0.029957 0.188626 0.334612
107 1.687326 6.187354 3.936986 -0.167283 -0.098087 -0.475686
108 1.687613 6.187283 5.061934 0.093505 -0.218571 -0.522199
109 1.687256 6.187041 6.187876 -0.237556 -0.398967 0.320321
110 1.687449 6.187591 7.312566 -0.021502 0.090652 0.077450
111 1.687522 6.188104 8.437468 0.034756 0.548991 -0.025385
112 1.687627 7.312865 0.562396 0.118297 0.341654 -0.057725
113 1.687836 7.312922 1.688166 0.334929 0.373068 0.621024
114 1.687212 7.312237 2.812913 -0.245688 -0.209390 0.406930
115 1.687154 7.313005 3.937471 -0.299329 0.481351 -0.013228
116 1.687258 7.312561 5.062377 -0.223293 0.042205 -0.125043
117 1.687342 7.312758 6.187220 -0.157527 0.198168 -0.268455
118 1.687385 7.312520 7.312356 -0.136581 0.024776 -0.139349
119 1.687633 7.312508 8.437643 0.126389 0.032245 0.118132
120 1.687666 8.437262 0.562419 0.153783 -0.204938 -0.053737
121 1.687728 8.437465 1.688076 0.195746 -0.019998 0.521557
122 1.687446 8.437916 2.812515 -0.032562 0.367031 0.050381
123 1.687546 8.438077 3.937697 0.028769 0.544035 0.184087
124 1.687903 8.437481 5.062571 0.374313 -0.013714 0.081463
125 1.687405 8.437171 6.187663 -0.077920 -0.290669 0.150854
126 1.687658 8.437554 7.312463 0.150625 0.038402 -0.033182
127 1.687823 8.437424 8.437338 0.276074 -0.078508 -0.152831
128 2.813084 0.562448 0.562251 0.522441 -0.031184 -0.245317
129 2.812271 0.562598 1.687401 -0.174797 0.104497 -0.107190
130 2.812471 0.562409 2.812411 -0.015879 -0.102712 -0.075438
131 2.812153 0.562532 3.937729 -0.310841 0.034272 0.204674
132 2.812633 0.562526 5.062525 0.124233 0.027192 0.022895
133 2.812906 0.562251 6.187288 0.369173 -0.199080 -0.206924
134 2.812758 0.562306 7.312176 0.253268 -0.201216 -0.317828
135 2.813050 0.562261 8.437220 0.481860 -0.252329 -0.281763
136 2.812495 1.687486 0.562768 -0.030812 -0.008120 0.235692
137 2.812133 1.687538 1.687722 -0.347402 0.046916 0.204458
138 2.812569 1.686940 2.812262 0.066900 -0.497217 -0.188901
139 2.813062 1.687969 3.937882 0.525298 0.422125 0.338776
140 2.812791 1.687590 5.062543 0.230358 0.070842 0.059494
141 2.812926 1.687733 6.187532 0.366547 0.198733 0.046940
142 2.811953 1.687339 7.312824 -0.496286 -0.141147 0.275333
143 2.812496 1.687179 8.437077 -0.015629 -0.306068 -0.356742
144 2.812668 2.812655 0.562566 0.154521 0.139015 0.048043
145 2.812869 2.812640 1.687003 0.310321 0.145334 -0.444933
146 2.812116 2.812892 2.812598 -0.368980 0.340489 0.065039
147 2.812339 2.812322 3.937465 -0.158619 -0.131540 -0.042518
148 2.812678 2.812247 5.062226 0.159129 -0.225351 -0.259179
149 2.811839 2.812457 6.187350 -0.611608 -0.036082 -0.125830
150 2.812022 2.812811 7.313031 -0.390892 0.263890 0.488171
151 2.812446 2.812460 8.437761 -0.042931 -0.046319 0.266250
152 2.812658 3.937486 0.562548 0.150752 -0.014175 0.038144
153 2.813117 3.937850 1.687167 0.556754 0.319777 -0.306042
154 2.812141 3.937673 2.812406 -0.315228 0.174611 -0.084504
155 2.812627 3.937691 3.937870 0.117612 0.168476 0.360024
156 2.812006 3.937530 5.063086 -0.424749 0.004823 0.564111
157 2.812112 3.937307 6.187757 -0.349834 -0.184162 0.259923
158 2.811893 3.937247 7.312425 -0.543385 -0.192657 -0.047486
159 2.811918 3.937610 8.437717 -0.516781 0.092509 0.196142
160 2.812326 5.062325 0.562870 -0.166652 -0.170880 0.347125
161 2.812973 5.062388 1.687691 0.439076 -0.057925 0.201604
162 2.812444 5.062496 2.812726 -0.060554 0.018069 0.211898
163 2.812717 5.062542 3.937411 0.199028 0.066022 -0.070446
164 2.812515 5.062249 5.062501 0.004929 -0.221192 0.004251
165 2.812866 5.062349 6.187684 0.322252 -0.127072 0.168277
166 2.811719 5.063009 7.312533 -0.688702 0.446340 0.040857
167 2.812387 5.062390 8.437526 -0.094664 -0.100889 0.042927
168 2.812146 6.187255 0.562301 -0.286705 -0.232270 -0.171103
169 2.812491 6.188071 1.687821 0.007904 0.532790 0.276769
170 2.812105 6.187763 2.812350 -0.375243 0.226637 -0.120531
171 2.812380 6.187895 3.937529 -0.105672 0.362046 0.028128
172 2.812644 6.187604 5.062684 0.143696 0.086227 0.187493
173 2.812239 6.187939 6.187855 -0.240600 0.371897 0.318438
174 2.812565 6.187373 7.312216 0.056335 -0.088062 -0.247095
175 2.812685 6.187390 8.437393 0.166784 -0.087798 -0.120801
176 2.812631 7.312512 0.561997 0.127255 0.014395 -0.452368
177 2.812831 7.312861 1.687086 0.321208 0.367786 -0.403329
178 2.812508 7.312290 2.812479 0.003082 -0.171204 -0.020565
179 2.812571 7.312492 3.937883 0.027723 -0.006693 0.351729
180 2.811972 7.312590 5.062589 -0.483933 0.086675 0.097593
181 2.812389 7.312051 6.187476 -0.101280 -0.372740 0.001307
182 2.812260 7.312581 7.312887 -0.224182 0.050083 0.376105
183 2.812534 7.312895 8.437994 0.035462 0.333927 0.443414
184 2.812715 8.437856 0.562134 0.211831 0.323736 -0.335827
185 2.812312 8.437759 1.687435 -0.147625 0.257060 -0.088361
186 2.812817 8.437669 2.812264 0.293332 0.138693 -0.202432
187 2.812289 8.437138 3.937846 -0.170755 -0.329964 0.289022
188 2.812697 8.437490 5.062195 0.200137 -0.002730 -0.273889
189 2.812573 8.437838 6.187231 0.036759 0.275702 -0.274853
190 2.812555 8.437117 7.312176 0.068836 -0.353968 -0.308795
191 2.812478 8.437078 8.437492 0.005476 -0.376973 -0.039534
192 3.937013 0.562884 0.562612 -0.417392 0.341242 0.116473
193 3.937793 0.562087 1.687841 0.277753 -0.411275 0.324694
194 3.937678 0.563092 2.812678 0.158440 0.531277 0.188344
195 3.937663 0.562381 3.937699 0.121094 -0.144948 0.198113
196 3.937615 0.562777 5.062693 0.139376 0.204161 0.185491
197 3.937005 0.562384 6.187493 -0.434137 -0.088404 -0.015002
198 3.937539 0.562327 7.312112 0.053855 -0.177711 -0.355245
199 3.937635 0.562440 8.437470 0.155855 -0.033716 -0.040429
200 3.937352 1.687414 0.562442 -0.127303 -0.050517 -0.059363
201 3.937730 1.687129 1.687302 0.190790 -0.360648 -0.194109
202 3.937429 1.687056 2.812278 -0.076032 -0.386900 -0.206391
203 3.937657 1.686976 3.937609 0.167551 -0.486124 0.069080
204 3.937315 1.686968 5.062096 -0.158166 -0.445067 -0.353678
205 3.937282 1.687589 6.187707 -0.178195 0.062085 0.194341
206 3.937500 1.687170 7.313010 -0.029225 -0.327834 0.477716
207 3.937172 1.687666 8.437571 -0.292898 0.131970 0.085673
208 3.937638 2.812705 0.562647 0.150563 0.163409 0.158636
209 3.937347 2.812435 1.687460 -0.116825 -0.080067 -0.042942
210 3.937176 2.812205 2.812199 -0.329437 -0.273657 -0.272762
211 3.937196 2.812414 3.937569 -0.286020 -0.104931 0.049389
212 3.937227 2.813064 5.062545 -0.237273 0.479117 0.043417
213 3.937128 2.812177 6.187467 -0.389461 -0.294176 -0.022506
214 3.938049 2.812094 7.312600 0.500666 -0.370606 0.114599
215 3.937456 2.812148 8.438074 -0.047543 -0.292797 0.534495
216 3.937421 3.937084 0.562556 -0.060312 -0.377896 0.061274
217 3.937493 3.937418 1.687629 0.030157 -0.094983 0.124482
218 3.937918 3.937859 2.812575 0.366909 0.292740 0.092604
219 3.937669 3.937429 3.937863 0.163354 -0.061439 0.346737
220 3.937813 3.937268 5.062768 0.257139 -0.185304 0.241120
221 3.937483 3.937418 6.187103 -0.059826 -0.074093 -0.335575
222 3.937467 3.937801 7.312794 -0.054630 0.261869 0.255517
223 3.937567 3.937934 8.437616 0.010042 0.389033 0.121549
224 3.937452 5.062319 0.562735 -0.057135 -0.191709 0.205881
225 3.937776 5.062146 1.687527 0.279215 -0.329674 0.033159
226 3.937451 5.062095 2.812450 -0.031744 -0.326010 -0.056308
227 3.937297 5.062654 3.937251 -0.149433 0.122918 -0.242203
228 3.937060 5.062485 5.062249 -0.402815 -0.022571 -0.236053
229 3.937469 5.062835 6.187605 0.017045 0.300755 0.075018
230 3.937627 5.062632 7.312290 0.081269 0.132512 -0.195908
231 3.937366 5.062712 8.437290 -0.120720 0.219809 -0.190981
232 3.937746 6.187337 0.562237 0.216863 -0.151045 -0.243047
233 3.937903 6.187393 1.687571 0.355533 -0.105559 0.043383
234 3.937128 6.188052 2.812317 -0.336795 0.489052 -0.156963
235 3.937757 6.187214 3.937622 0.227952 -0.248142 0.083439
236 3.937625 6.187559 5.062089 0.115476 0.055382 -0.399038
237 3.937696 6.187471 6.186863 0.182936 -0.016457 -0.618203
238 3.937447 6.187503 7.312140 -0.036410 0.006791 -0.362452
239 3.937421 6.187629 8.437372 -0.060751 0.139772 -0.145460
240 3.937550 7.312624 0.562168 0.072501 0.099042 -0.308242
241 3.937587 7.312701 1.687378 0.101124 0.161486 -0.128642
242 3.937699 7.312582 2.812478 0.167212 0.113360 -0.022780
243 3.937042 7.312616 3.937551 -0.398718 0.082198 0.066843
244 3.937702 7.312553 5.062947 0.160709 0.027239 0.406039
245 3.937635 7.312383 6.187417 0.113255 -0.095421 -0.062909
246 3.937497 7.312457 7.312284 -0.012279 -0.042852 -0.201602
247 3.937469 7.312733 8.437481 -0.036721 0.229907 -0.043139
248 3.937683 8.437377 0.562455 0.192940 -0.089294 -0.038980
249 3.937786 8.437175 1.687666 0.262642 -0.306004 0.157048
250 3.937624 8.437772 2.812670 0.114958 0.279752 0.150073
251 3.937922 8.437286 3.937218 0.399827 -0.194032 -0.251049
252 3.937523 8.437009 5.062471 0.036306 -0.432459 -0.050725
253 3.936991 8.437765 6.187277 -0.459228 0.231250 -0.208642
254 3.937747 8.437414 7.312402 0.236031 -0.089421 -0.105772
255 3.937748 8.437779 8.437342 0.198983 0.262530 -0.151524
256 5.062464 0.562326 0.562868 -0.047265 -0.140881 0.342491
257 5.062953 0.562556 1.687504 0.450385 0.045430 0.020761
258 5.062469 0.562823 2.812509 -0.037727 0.280119 0.025952
259 5.062286 0.562352 3.937870 -0.186921 -0.142906 0.327540
260 5.063082 0.562337 5.062314 0.534198 -0.126321 -0.162975
261 5.062424 0.562398 6.187276 -0.106168 -0.128629 -0.224581
262 5.062628 0.562958 7.312238 0.120248 0.415803 -0.241157
263 5.062628 0.562574 8.437645 0.149732 0.103745 0.136088
264 5.062657 1.687612 0.562370 0.140952 0.096647 -0.120303
265 5.062454 1.687721 1.687412 -0.021074 0.198853 -0.078872
266 5.062196 1.687187 2.812661 -0.263148 -0.264881 0.139922
267 5.062442 1.687423 3.937435 -0.042472 -0.122677 -0.049645
268 5.062419 1.687786 5.062579 -0.087884 0.252946 0.045532
269 5.062468 1.687103 6.187003 -0.023671 -0.370982 -0.451071
270 5.062431 1.687357 7.312464 -0.061116 -0.138160 -0.052674
271 5.062627 1.687696 8.437563 0.085611 0.187738 0.049706
272 5.062841 2.812576 0.562767 0.309864 0.077488 0.229807
273 5.062611 2.812370 1.687579 0.097756 -0.112566 0.081898
274 5.062162 2.812596 2.812425 -0.313575 0.102744 -0.042090
275 5.062460 2.811542 3.937975 -0.051841 -0.895036 0.427768
276 5.062555 2.812455 5.062470 0.030322 -0.020243 -0.014772
277 5.062088 2.812435 6.187296 -0.393935 -0.071002 -0.179679
278 5.062957 2.811874 7.312635 0.431851 -0.587087 0.097010
279 5.062406 2.812623 8.437157 -0.109519 0.129493 -0.295042
280 5.062591 3.937559 0.562946 0.069421 0.059422 0.390889
281 5.062669 3.937403 1.687133 0.164257 -0.107096 -0.317088
282 5.062543 3.938086 2.812407 0.064302 0.552956 -0.099694
283 5.062584 3.937099 3.937538 0.088791 -0.381833 0.037081
284 5.062380 3.937653 5.062670 -0.094065 0.140576 0.159174
285 5.061946 3.937616 6.187569 -0.516321 0.092901 0.066799
286 5.062608 3.937282 7.312387 0.098140 -0.220863 -0.096532
287 5.061987 3.937656 8.437570 -0.452400 0.162535 0.078595
288 5.062409 5.062513 0.562456 -0.072592 0.020259 -0.033246
289 5.062617 5.062251 1.687287 0.130378 -0.245283 -0.201699
290 5.062838 5.062792 2.812378 0.294797 0.285118 -0.106157
291 5.063042 5.063134 3.937795 0.487335 0.528664 0.285076
292 5.062458 5.062560 5.062954 -0.068606 0.068119 0.431349
293 5.063089 5.062277 6.187585 0.557377 -0.211911 0.081731
294 5.062531 5.062676 7.312164 0.012868 0.157285 -0.282130
295 5.062640 5.062812 8.437909 0.137250 0.276278 0.354724
296 5.062711 6.187613 0.562970 0.195049 0.098077 0.441473
297 5.062277 6.187204 1.687573 -0.196763 -0.274874 0.081799
298 5.062976 6.187323 2.812375 0.402827 -0.151564 -0.105202
299 5.062457 6.186898 3.937607 -0.027684 -0.523367 0.085189
300 5.062398 6.187628 5.062347 -0.091302 0.130218 -0.118782
301 5.062853 6.187216 6.187843 0.308519 -0.263972 0.289133
302 5.062700 6.187640 7.312123 0.169062 0.116328 -0.317139
303 5.062559 6.187190 8.437683 0.039506 -0.248539 0.171390
304 5.062964 7.312368 0.562441 0.436709 -0.102847 -0.042976
305 5.062660 7.312636 1.687903 0.142789 0.094428 0.356006
306 5.062170 7.312392 2.812312 -0.290776 -0.105452 -0.168473
307 5.062867 7.312364 3.937128 0.326786 -0.157614 -0.354046
308 5.062525 7.312709 5.062387 0.016931 0.206285 -0.133860
309 5.062408 7.312635 6.187246 -0.083208 0.093136 -0.236225
310 5.062546 7.312061 7.312504 0.047012 -0.388456 -0.015789
311 5.062286 7.312916 8.437321 -0.181722 0.392224 -0.165596
312 5.062838 8.437776 0.562225 0.340461 0.237043 -0.228696
313 5.062741 8.437160 1.687456 0.231088 -0.300399 -0.080157
314 5.062266 8.437525 2.811950 -0.213786 0.033838 -0.497000
315 5.063018 8.437400 3.937649 0.470870 -0.105579 0.121043
316 5.062627 8.437706 5.062729 0.103963 0.191131 0.207176
317 5.062528 8.437146 6.187318 -0.008413 -0.321606 -0.165114
318 5.062666 8.437604 7.312273 0.145204 0.095606 -0.191647
319 5.061979 8.438073 8.438015 -0.462710 0.543290 0.446097
320 6.187716 0.562439 0.562905 0.204814 -0.048152 0.400497
321 6.188005 0.562909 1.687980 0.506197 0.355637 0.466270
322 6.187118 0.562358 2.812707 -0.364956 -0.123588 0.228807
323 6.187534 0.562424 3.937894 0.019087 -0.035328 0.357217
324 6.187456 0.562925 5.062282 -0.034172 0.384355 -0.181917
325 6.187243 0.562206 6.187448 -0.236112 -0.250387 -0.081824
326 6.187551 0.562351 7.311984 0.063517 -0.101566 -0.462026
327 6.188058 0.562437 8.437698 0.502137 -0.031306 0.175806
328 6.187618 1.687661 0.562217 0.118834 0.144952 -0.259890
329 6.187722 1.687189 1.687750 0.205487 -0.262221 0.226719
330 6.187863 1.687821 2.812772 0.305022 0.266538 0.258868
331 6.187542 1.687712 3.937486 0.021972 0.192601 0.005722
332 6.187405 1.687187 5.062626 -0.073747 -0.253255 0.123614
333 6.187811 1.688027 6.187688 0.261944 0.459700 0.149356
334 6.187566 1.688220 7.311894 0.057088 0.650694 -0.553887
335 6.187193 1.687674 8.437232 -0.274963 0.163664 -0.286696
336 6.187355 2.812518 0.562825 -0.121991 -0.002711 0.294435
337 6.187579 2.812555 1.687370 0.070323 0.045951 -0.115021
338 6.187712 2.812096 2.812276 0.184239 -0.374251 -0.213232
339 6.187466 2.812539 3.937427 -0.033296 0.036511 -0.085482
340 6.187325 2.812761 5.062325 -0.154562 0.236302 -0.171076
341 6.187489 2.812354 6.187327 -0.046295 -0.127614 -0.161550
342 6.187272 2.812552 7.312561 -0.179425 0.081650 0.052775
343 6.187062 2.812696 8.437605 -0.408101 0.185943 0.115071
344 6.187293 3.936959 0.562627 -0.174497 -0.495206 0.122004
345 6.187744 3.937709 1.687622 0.209209 0.185428 0.095395
346 6.187624 3.937032 2.812019 0.112837 -0.446000 -0.446613
347 6.187610 3.937273 3.937189 0.098241 -0.197697 -0.325556
348 6.187494 3.937782 5.062091 0.009694 0.233358 -0.396457
349 6.187285 3.937087 6.187321 -0.244146 -0.381440 -0.195464
350 6.187504 3.937492 7.312212 0.005287 -0.016814 -0.268267
351 6.187771 3.937477 8.437549 0.219503 -0.020844 0.036565
352 6.187783 5.062446 0.563003 0.238333 -0.072162 0.452480
353 6.187725 5.062319 1.687404 0.202076 -0.165627 -0.087787
354 6.187314 5.062510 2.811992 -0.151674 -0.014691 -0.463925
355 6.187559 5.062640 3.937569 0.077259 0.119941 0.049805
356 6.187328 5.061742 5.062731 -0.158413 -0.673768 0.218529
357 6.187963 5.062543 6.187628 0.467385 0.029632 0.126398
358 6.187081 5.062219 7.312458 -0.367935 -0.269971 -0.032813
359 6.187818 5.062301 8.437461 0.293127 -0.174889 -0.014745
360 6.187314 6.187541 0.562277 -0.141379 0.039380 -0.184992
361 6.187254 6.187257 1.687789 -0.234255 -0.240443 0.278148
362 6.187217 6.187461 2.813015 -0.222121 -0.050755 0.464228
363 6.187522 6.187562 3.937108 0.034020 0.080205 -0.319632
364 6.187424 6.187581 5.062791 -0.089518 0.033091 0.224039
365 6.187057 6.187654 6.187030 -0.380619 0.144629 -0.415992
366 6.187298 6.187217 7.312479 -0.188680 -0.291686 -0.034583
367 6.187284 6.187654 8.437620 -0.190511 0.137670 0.098500
368 6.187751 7.312599 0.562315 0.238962 0.093249 -0.205911
369 6.187347 7.312262 1.687178 -0.112377 -0.231365 -0.302435
370 6.187525 7.312157 2.812535 0.019776 -0.322585 0.038198
371 6.187797 7.312838 3.937957 0.300194 0.335859 0.423860
372 6.187182 7.312390 5.062617 -0.300001 -0.087104 0.120546
373 6.187394 7.312534 6.187355 -0.082526 0.032131 -0.127652
374 6.187614 7.312080 7.312478 0.117633 -0.394464 -0.049710
375 6.187819 7.312606 8.437031 0.273476 0.121828 -0.437916
376 6.188017 8.437493 0.562673 0.496844 -0.005215 0.167541
377 6.187486 8.437443 1.687644 -0.003433 -0.042609 0.146440
378 6.187365 8.437324 2.812674 -0.149771 -0.183324 0.184297
379 6.187065 8.438011 3.937885 -0.364574 0.477448 0.367782
380 6.187271 8.437715 5.062703 -0.201784 0.210507 0.208440
381 6.187285 8.437367 6.187612 -0.202495 -0.132999 0.118295
382 6.187122 8.437529 7.312640 -0.320595 -0.000843 0.137477
383 6.187516 8.437871 8.437570 -0.012770 0.338856 0.079006
384 7.312749 0.562143 0.562980 0.230818 -0.321921 0.393207
385 7.313016 0.562193 1.686925 0.503885 -0.275899 -0.502185
386 7.312198 0.562263 2.812498 -0.291728 -0.218149 -0.038047
387 7.312426 0.562767 3.937311 -0.068265 0.218394 -0.181584
388 7.312019 0.561842 5.062282 -0.430103 -0.638610 -0.208147
389 7.312531 0.562626 6.187457 0.045754 0.112816 -0.065025
390 7.312739 0.562940 7.312170 0.200517 0.420367 -0.316850
391 7.312253 0.562237 8.437161 -0.216890 -0.258332 -0.301557
392 7.312573 1.687612 0.562224 0.085228 0.103569 -0.244110
393 7.312643 1.687721 1.687700 0.116501 0.197306 0.175269
394 7.312271 1.687729 2.812611 -0.177460 0.176410 0.104225
395 7.312228 1.686997 3.937380 -0.243516 -0.449887 -0.115750
396 7.312868 1.686859 5.062246 0.331879 -0.595842 -0.238670
397 7.312074 1.687575 6.187474 -0.364689 0.067987 -0.053892
398 7.312500 1.687701 7.312115 -0.011280 0.222211 -0.352461
399 7.312472 1.687037 8.437466 -0.054629 -0.445402 -0.061560
400 7.312365 2.812880 0.562436 -0.135768 0.352324 -0.039617
401 7.312373 2.812725 1.687948 -0.131384 0.228783 0.407118
402 7.312666 2.812050 2.812542 0.151243 -0.401362 0.058030
403 7.312494 2.812393 3.937478 -0.015596 -0.129650 -0.004935
404 7.312536 2.812916 5.062754 -0.006107 0.335839 0.190700
405 7.312142 2.812373 6.186663 -0.335294 -0.126146 -0.736109
406 7.312628 2.812911 7.312773 0.083988 0.385141 0.207756
407 7.312391 2.812279 8.437454 -0.097848 -0.213877 -0.032550
408 7.312730 3.937501 0.562506 0.204756 0.012198 -0.006269
409 7.312076 3.937798 1.687201 -0.378071 0.280005 -0.259066
410 7.312472 3.937457 2.812808 -0.004919 -0.070580 0.265613
411 7.312373 3.937341 3.937453 -0.085390 -0.161900 -0.027663
412 7.312932 3.937230 5.062522 0.391371 -0.217326 -0.006257
413 7.312042 3.937242 6.187007 -0.440083 -0.249649 -0.462839
414 7.312412 3.937516 7.312157 -0.076889 0.032246 -0.332383
415 7.312415 3.937722 8.437563 -0.061913 0.183141 0.041846
416 7.312186 5.062353 0.562400 -0.256258 -0.124993 -0.088089
417 7.312334 5.062468 1.687379 -0.128317 -0.031395 -0.114808
418 7.312538 5.062268 2.812496 0.033460 -0.209678 0.023077
419 7.312437 5.062242 3.938189 -0.066402 -0.256044 0.649787
420 7.312519 5.062676 5.062946 -0.005291 0.131217 0.446976
421 7.312841 5.062305 6.187662 0.335491 -0.190223 0.148605
422 7.312781 5.062476 7.312067 0.253964 -0.015170 -0.376298
423 7.312436 5.062317 8.437711 -0.022007 -0.186248 0.167052
424 7.312878 6.187669 0.562620 0.335208 0.117303 0.093068
425 7.312491 6.187145 1.687387 -0.013824 -0.316934 -0.094781
426 7.312769 6.187586 2.812552 0.234485 0.079056 0.048762
427 7.312834 6.187201 3.937647 0.302366 -0.278314 0.120851
428 7.312146 6.187113 5.062186 -0.323800 -0.348774 -0.273375
429 7.312634 6.187488 6.187635 0.100727 -0.021127 0.097510
430 7.312177 6.187629 7.312295 -0.319233 0.122975 -0.191633
431 7.312583 6.186861 8.437262 0.039968 -0.600312 -0.222233
432 7.312269 7.311849 0.562831 -0.199642 -0.588624 0.329588
433 7.312917 7.312656 1.687629 0.394301 0.119617 0.124567
434 7.312751 7.312744 2.812319 0.224404 0.213942 -0.136488
435 7.312745 7.312619 3.937988 0.238722 0.092085 0.436154
436 7.312245 7.312379 5.062498 -0.239335 -0.136096 0.038440
437 7.312860 7.312485 6.187835 0.330735 -0.021432 0.302734
438 7.312729 7.312608 7.312450 0.208923 0.113548 -0.006735
439 7.312358 7.312321 8.437965 -0.134278 -0.189383 0.438879
440 7.312728 8.437433 0.562429 0.218191 -0.108116 -0.060571
441 7.312483 8.437355 1.687953 -0.025795 -0.138258 0.411728
442 7.312149 8.437243 2.812533 -0.332980 -0.232978 0.035489
443 7.312638 8.437464 3.937154 0.094075 -0.014924 -0.316581
444 7.312485 8.437342 5.062457 -0.044462 -0.180707 -0.047735
445 7.312307 8.437358 6.187663 -0.191989 -0.123546 0.130002
446 7.312850 8.437686 7.312181 0.298258 0.195640 -0.296729
447 7.312462 8.437567 8.437193 -0.019847 0.039347 -0.298802
448 8.437387 0.562433 0.562849 -0.091944 -0.074106 0.309871
449 8.437708 0.562223 1.687543 0.233538 -0.249790 0.046096
450 8.437532 0.562903 2.812265 0.017856 0.364397 -0.236966
451 8.437415 0.562489 3.936953 -0.071516 -0.021158 -0.519992
452 8.437725 0.562622 5.062270 0.163641 0.106018 -0.230880
453 8.438097 0.562110 6.187616 0.546237 -0.356194 0.089702
454 8.437100 0.561993 7.312413 -0.363967 -0.456892 -0.081064
455 8.437113 0.562200 8.437327 -0.360629 -0.288769 -0.145416
456 8.437788 1.687378 0.562596 0.258607 -0.138021 0.082937
457 8.436997 1.687622 1.687196 -0.454463 0.123647 -0.277465
458 8.437791 1.687326 2.812412 0.247274 -0.125405 -0.104763
459 8.437555 1.687107 3.937265 0.024765 -0.332430 -0.215928
460 8.437481 1.687785 5.062534 -0.000555 0.295834 0.044373
461 8.437679 1.687838 6.188004 0.135711 0.308757 0.460155
462 8.437188 1.687792 7.312490 -0.272085 0.231749 0.025512
463 8.437189 1.687203 8.437725 -0.288336 -0.295959 0.209465
464 8.437383 2.811983 0.562528 -0.125141 -0.483899 0.036026
465 8.437087 2.813042 1.687692 -0.369370 0.499379 0.173638
466 8.437279 2.812813 2.812449 -0.202433 0.277302 -0.053169
467 8.437321 2.813055 3.937163 -0.177132 0.490964 -0.316073
468 8.436865 2.813134 5.062354 -0.565608 0.586402 -0.158256
469 8.437290 2.812915 6.187316 -0.200648 0.395771 -0.148086
470 8.437020 2.812289 7.313057 -0.432061 -0.163379 0.500813
471 8.437978 2.812274 8.437541 0.399748 -0.207540 0.065099
472 8.437566 3.937380 0.562602 0.064461 -0.153216 0.089033
473 8.437420 3.937495 1.687546 -0.095006 0.039862 0.046516
474 8.437800 3.937533 2.812512 0.259003 0.055387 0.025812
475 8.438043 3.937598 3.937756 0.484120 0.101900 0.233732
476 8.437449 3.937452 5.062461 -0.035592 -0.021027 -0.021558
477 8.437236 3.937526 6.187533 -0.260907 0.029170 0.030675
478 8.437557 3.937848 7.312530 0.042607 0.334140 0.022942
479 8.437561 3.937737 8.437378 0.046707 0.210971 -0.105174
480 8.437861 5.062078 0.562535 0.324739 -0.382118 0.063197
481 8.437739 5.062912 1.687999 0.179810 0.358799 0.463873
482 8.437670 5.062724 2.812656 0.147173 0.228579 0.144091
483 8.437263 5.062214 3.937032 -0.230244 -0.266678 -0.425803
484 8.437212 5.062344 5.062374 -0.242472 -0.159146 -0.145364
485 8.437556 5.062183 6.187322 0.064662 -0.270731 -0.164313
486 8.437869 5.063079 7.312601 0.353228 0.531174 0.092206
487 8.437949 5.062631 8.437679 0.408796 0.134124 0.169532
488 8.437469 6.187678 0.562588 -0.003926 0.147304 0.079373
489 8.437659 6.187157 1.687450 0.106081 -0.288658 -0.059130
490 8.437565 6.187982 2.812144 0.078947 0.469609 -0.334824
491 8.437432 6.187258 3.937347 -0.049047 -0.233711 -0.158629
492 8.437561 6.187170 5.062450 0.021323 -0.305078 -0.032995
493 8.437493 6.187878 6.187875 -0.003902 0.357927 0.361021
494 8.437195 6.187222 7.312936 -0.271516 -0.219318 0.416694
495 8.436962 6.187576 8.437529 -0.478901 0.083039 0.051660
496 8.437504 7.312591 0.562453 -0.008886 0.083878 -0.049030
497 8.437947 7.312592 1.687528 0.440342 0.063500 0.043968
498 8.437403 7.312902 2.812966 -0.061010 0.394384 0.431835
499 8.437542 7.312515 3.937580 0.061287 0.010839 0.064637
500 8.437677 7.312555 5.061883 0.171837 0.012178 -0.559306
501 8.437654 7.313071 6.187475 0.147315 0.519909 -0.060609
502 8.437407 7.312655 7.312342 -0.092858 0.117781 -0.151311