ITEM: TIMESTEP
0
ITEM: NUMBER OF ATOMS
512
ITEM: BOX BOUNDS pp pp pp
0 9.500000
0 9.500000
0 9.500000
ITEM: ATOMS id x y z vx vy vz 
0 0.593794 0.594474 0.593627 0.043317 0.716538 -0.119847
1 0.593642 0.594056 1.781010 -0.108783 0.298953 -0.236022
2 0.594260 0.593868 2.968996 0.504195 0.111025 0.243416
3 0.593779 0.593857 4.156580 0.027351 0.104906 0.329787
4 0.594059 0.594193 5.344080 0.299477 0.437971 0.322692
5 0.593661 0.594171 6.530525 -0.090551 0.414137 -0.712987
6 0.593534 0.593730 7.718653 -0.207622 -0.013602 -0.097501
7 0.594004 0.593784 8.906722 0.255410 0.037081 0.463380
8 0.594178 1.781364 0.593835 0.416690 0.117139 0.087202
9 0.594154 1.781238 1.781498 0.400662 -0.005782 0.244642
10 0.593898 1.780834 2.968619 0.140086 -0.407464 -0.129015
11 0.593841 1.781054 4.156070 0.090227 -0.192783 -0.178443
12 0.593667 1.781192 5.343799 -0.082144 -0.056549 0.045823
13 0.593662 1.781306 6.531055 -0.084724 0.060101 -0.194684
14 0.593552 1.781631 7.718310 -0.195195 0.377206 -0.434996
15 0.593887 1.781461 8.906353 0.136341 0.207128 0.098941
16 0.593841 2.968616 0.593202 0.088230 -0.129033 -0.537769
17 0.593779 2.969168 1.781185 0.026781 0.411444 -0.070757
18 0.594222 2.968996 2.968450 0.463442 0.234085 -0.291289
19 0.593716 2.968718 4.156887 -0.032221 -0.034542 0.627147
20 0.593406 2.968382 5.343944 -0.338536 -0.360717 0.195915
21 0.593564 2.968941 6.531269 -0.184095 0.188564 0.019434
22 0.593672 2.968925 7.718677 -0.081752 0.173290 -0.068405
23 0.593472 2.968633 8.906641 -0.271844 -0.117657 0.380477
24 0.594042 4.156556 0.594464 0.289226 0.299809 0.701586
25 0.593819 4.156245 1.780894 0.068402 0.001315 -0.343405
26 0.594023 4.155587 2.969092 0.276196 -0.656946 0.334699
27 0.593721 4.156096 4.156274 -0.030057 -0.155664 0.026589
28 0.593625 4.156618 5.343769 -0.125734 0.363554 0.015619
29 0.593615 4.156187 6.530825 -0.135003 -0.061655 -0.424532
30 0.593969 4.155897 7.718053 0.219013 -0.339918 -0.690630
31 0.593730 4.155732 8.906258 -0.016036 -0.509492 0.008084
32 0.593809 5.343544 0.593694 0.060709 -0.200171 -0.060741
33 0.593994 5.344130 1.780732 0.244025 0.377459 -0.512214
34 0.593404 5.343064 2.968605 -0.343899 -0.684141 -0.149134
35 0.593786 5.343221 4.155960 0.033496 -0.527150 -0.288334
36 0.593602 5.344232 5.343631 -0.146420 0.475984 -0.120896
37 0.593623 5.343619 6.531128 -0.124489 -0.129245 -0.123904
38 0.593925 5.344645 7.718326 0.172139 0.885862 -0.420826
39 0.593116 5.344100 8.906018 -0.624950 0.339987 -0.232358
40 0.593365 6.531411 0.593512 -0.378153 0.155678 -0.230349
41 0.593696 6.531630 1.781352 -0.058669 0.374971 0.099766
42 0.594333 6.530908 2.968910 0.575213 -0.340958 0.158161
43 0.593671 6.530709 4.156148 -0.081111 -0.537143 -0.095985
44 0.593577 6.530945 5.344273 -0.173227 -0.297615 0.507306
45 0.593855 6.531401 6.530261 0.105512 0.147974 -0.971464
46 0.594459 6.532006 7.718741 0.696549 0.753302 -0.012434
47 0.593900 6.531143 8.906712 0.152955 -0.105479 0.454185
48 0.593780 7.718607 0.593465 0.033044 -0.138048 -0.281628
49 0.593423 7.718444 1.781277 -0.322253 -0.300775 0.020755
50 0.593496 7.719003 2.968232 -0.249442 0.244530 -0.507268
51 0.593708 7.718767 4.156665 -0.043914 0.013425 0.405689
52 0.593171 7.718671 5.343787 -0.570806 -0.078217 0.040855
53 0.593787 7.718771 6.531435 0.034651 0.020104 0.180588
54 0.594115 7.718875 7.718455 0.362348 0.132162 -0.289988
55 0.593942 7.718381 8.906160 0.189864 -0.362014 -0.092940
56 0.593933 8.906453 0.594182 0.179105 0.204531 0.417100
57 0.594107 8.905947 1.780712 0.355500 -0.298910 -0.527485
58 0.593662 8.905934 2.968626 -0.084210 -0.308288 -0.126526
59 0.592880 8.906395 4.156226 -0.857243 0.143823 -0.031389
60 0.593902 8.906500 5.342888 0.150708 0.248910 -0.850631
61 0.593862 8.906070 6.531163 0.108373 -0.175075 -0.089870
62 0.593150 8.906624 7.719053 -0.589852 0.369823 0.293515
63 0.593674 8.906547 8.905640 -0.072706 0.290257 -0.596130
64 1.781189 0.593875 0.593731 -0.063855 0.121456 -0.015993
65 1.781706 0.593650 1.781275 0.450913 -0.099565 0.021358
66 1.781340 0.593991 2.968329 0.089701 0.229931 -0.415435
67 1.780895 0.594034 4.156189 -0.345959 0.282197 -0.065971
68 1.780870 0.593434 5.343452 -0.373036 -0.315141 -0.295557
69 1.780968 0.593824 6.531091 -0.276044 0.076038 -0.161682
70 1.781773 0.593267 7.718403 0.516549 -0.478105 -0.341250
71 1.781453 0.593056 8.906561 0.202909 -0.681045 0.303945
72 1.780746 1.781131 0.593072 -0.493285 -0.113899 -0.670394
73 1.781664 1.781287 1.781020 0.409050 0.040056 -0.232453
74 1.780719 1.781080 2.968687 -0.524737 -0.168027 -0.058032
75 1.781444 1.781567 4.156955 0.193200 0.314623 0.694946
76 1.781370 1.780736 5.343803 0.119929 -0.507704 0.058220
77 1.781026 1.781167 6.531272 -0.222003 -0.086013 0.019677
78 1.781502 1.781107 7.718458 0.247018 -0.146404 -0.288439
79 1.781409 1.781309 8.906197 0.161655 0.049199 -0.059981
80 1.781415 2.969062 0.593362 0.167459 0.302399 -0.380507
81 1.781328 2.969354 1.781363 0.078389 0.595051 0.109759
82 1.781323 2.968485 2.968851 0.073117 -0.260537 0.097360
83 1.781533 2.968658 4.155819 0.277425 -0.092020 -0.424461
84 1.780848 2.968923 5.343754 -0.398516 0.167058 0.002397
85 1.781134 2.968052 6.531439 -0.117355 -0.689922 0.191060
86 1.781383 2.968594 7.719401 0.131147 -0.157470 0.644811
87 1.781526 2.968302 8.906416 0.269913 -0.440543 0.165500
88 1.781274 4.155686 0.593889 0.027857 -0.556675 0.138587
89 1.781201 4.156200 1.781444 -0.045636 -0.045648 0.197902
90 1.781488 4.156549 2.969424 0.235503 0.292405 0.666867
91 1.781297 4.155765 4.156385 0.044665 -0.477550 0.140406
92 1.781013 4.156306 5.343963 -0.231153 0.054054 0.209966
93 1.781428 4.156103 6.531085 0.172832 -0.149636 -0.160953
94 1.780914 4.155872 7.718725 -0.332796 -0.371938 -0.026562
95 1.781267 4.156298 8.906204 0.016850 0.047125 -0.044706
96 1.781524 5.343352 0.593662 0.273900 -0.397250 -0.082396
97 1.781578 5.343560 1.781388 0.323896 -0.187226 0.139955
98 1.781170 5.343616 2.969332 -0.084807 -0.129255 0.578394
99 1.781131 5.343981 4.156631 -0.115748 0.222862 0.376471
100 1.780881 5.343403 5.343313 -0.365309 -0.338759 -0.425469
101 1.780877 5.343849 6.531587 -0.373312 0.096545 0.326796
102 1.781474 5.344029 7.718420 0.222587 0.274205 -0.319611
103 1.781487 5.344137 8.906629 0.229837 0.380210 0.370317
104 1.781128 6.531228 0.593666 -0.118404 -0.028655 -0.084864
105 1.780636 6.531237 1.781469 -0.606664 -0.014274 0.211055
106 1.781280 6.531305 2.968259 0.036887 0.056142 -0.482994
107 1.780865 6.531018 4.156238 -0.382470 -0.221709 -0.013672
108 1.780914 6.531699 5.344010 -0.331539 0.440112 0.253867
109 1.781574 6.531310 6.530899 0.320257 0.054895 -0.342418
110 1.780819 6.531543 7.718886 -0.419024 0.296649 0.127897
111 1.781377 6.531005 8.905718 0.124263 -0.237428 -0.524126
112 1.781510 7.718169 0.594504 0.258062 -0.574306 0.742430
113 1.781787 7.718787 1.781427 0.522750 0.035494 0.180780
114 1.781302 7.719066 2.968797 0.051727 0.304691 0.051299
115 1.780575 7.719360 4.156696 -0.671621 0.599818 0.439276
116 1.781353 7.718716 5.343706 0.094196 -0.029545 -0.041395
117 1.780901 7.718168 6.531117 -0.344361 -0.570256 -0.128608
118 1.781470 7.719462 7.719103 0.220300 0.703844 0.344657
119 1.781361 7.718868 8.905894 0.113358 0.117370 -0.342603
120 1.781416 8.906102 0.593724 0.167976 -0.149193 -0.024263
121 1.781328 8.906117 1.781037 0.078029 -0.130811 -0.209876
122 1.781399 8.905363 2.968817 0.146187 -0.870051 0.063960
123 1.781208 8.906232 4.156125 -0.046810 -0.010450 -0.124939
124 1.781335 8.906380 5.343511 0.085624 0.124859 -0.238820
125 1.780615 8.906665 6.530949 -0.628239 0.405712 -0.297007
126 1.781358 8.906144 7.719000 0.100786 -0.103637 0.247257
127 1.781842 8.906586 8.906698 0.583415 0.326624 0.443886
128 2.968293 0.593688 0.593469 -0.452130 -0.062191 -0.279171
129 2.969016 0.593477 1.781075 0.265036 -0.267773 -0.175615
130 2.968417 0.593549 2.968613 -0.321493 -0.194410 -0.138753
131 2.969254 0.594074 4.155921 0.494076 0.313496 -0.326037
132 2.968609 0.594079 5.343645 -0.145664 0.328472 -0.104721
133 2.969085 0.593710 6.531390 0.327967 -0.043698 0.137099
134 2.969033 0.594716 7.718745 0.282158 0.953088 -0.003873
135 2.968893 0.594152 8.906172 0.140484 0.403630 -0.079552
136 2.968810 1.781099 0.593795 0.048685 -0.150479 0.045529
137 2.968436 1.781307 1.781781 -0.307041 0.050475 0.526437
138 2.968522 1.781534 2.969073 -0.227105 0.282916 0.321772
139 2.968880 1.780365 4.156124 0.130659 -0.870955 -0.123375
140 2.968973 1.781428 5.343629 0.221623 0.181762 -0.117870
141 2.968734 1.780814 6.531592 -0.014815 -0.428659 0.337899
142 2.968809 1.781104 7.718923 0.058379 -0.134417 0.170469
143 2.969256 1.781586 8.905836 0.500928 0.331607 -0.406345
144 2.969304 2.968661 0.593934 0.545881 -0.086816 0.185129
145 2.968908 2.968220 1.780800 0.154643 -0.520473 -0.444231
146 2.968433 2.969345 2.968519 -0.313653 0.588753 -0.230619
147 2.968563 2.968727 4.156286 -0.182409 -0.030080 0.032418
148 2.968788 2.969153 5.343539 0.033022 0.398268 -0.208576
149 2.968573 2.968973 6.531196 -0.174967 0.215857 -0.056861
150 2.968776 2.969006 7.718475 0.028714 0.250661 -0.265350
151 2.968791 2.968338 8.907108 0.042949 -0.407783 0.845213
152 2.969062 4.156526 0.593490 0.306936 0.274630 -0.251553
153 2.969000 4.156505 1.781032 0.247131 0.243330 -0.218260
154 2.968650 4.156244 2.968494 -0.094701 -0.003460 -0.258521
155 2.968588 4.156205 4.155662 -0.159095 -0.045763 -0.581242
156 2.969144 4.156202 5.343808 0.388097 -0.047295 0.052195
157 2.968456 4.156189 6.531185 -0.286620 -0.057075 -0.061234
158 2.968348 4.156127 7.719013 -0.396447 -0.118446 0.264458
159 2.968834 4.155705 8.907041 0.082317 -0.540710 0.780049
160 2.969229 5.344168 0.593809 0.474606 0.410876 0.058308
161 2.968551 5.343255 1.780791 -0.194114 -0.485524 -0.454928
162 2.968381 5.343551 2.968444 -0.367480 -0.195231 -0.299659
163 2.968924 5.343501 4.157003 0.170206 -0.253502 0.739036
164 2.968601 5.343342 5.343523 -0.153993 -0.402948 -0.218766
165 2.968227 5.343837 6.531238 -0.520224 0.089921 -0.012934
166 2.968712 5.343792 7.718773 -0.033329 0.038423 0.025940
167 2.968863 5.343766 8.906666 0.114217 0.011032 0.410710
168 2.969437 6.530811 0.593660 0.681807 -0.427658 -0.086521
169 2.968698 6.531277 1.781531 -0.053319 0.025227 0.277701
170 2.969046 6.531322 2.968884 0.289483 0.070484 0.129446
171 2.968438 6.530273 4.155531 -0.310887 -0.963077 -0.704167
172 2.968827 6.531196 5.344215 0.074958 -0.055038 0.451351
173 2.968667 6.531815 6.530985 -0.082727 0.556217 -0.261166
174 2.968788 6.531014 7.718373 0.034681 -0.234428 -0.373466
175 2.968416 6.531247 8.906256 -0.332639 -0.005419 0.002627
176 2.968975 7.719062 0.594096 0.225043 0.304950 0.337437
177 2.968126 7.719005 1.780674 -0.611816 0.252837 -0.566305
178 2.969082 7.718817 2.968594 0.327969 0.068190 -0.158955
179 2.968031 7.718948 4.156091 -0.712377 0.188438 -0.157019
180 2.968318 7.718929 5.343944 -0.426632 0.178262 0.193476
181 2.968720 7.718516 6.531757 -0.033014 -0.226000 0.499174
182 2.968848 7.718467 7.718397 0.099938 -0.279419 -0.342993
183 2.969090 7.718373 8.906414 0.335298 -0.367285 0.161842
184 2.969105 8.906278 0.593857 0.345157 0.028903 0.113748
185 2.968575 8.906405 1.781771 -0.169341 0.153068 0.512380
186 2.968778 8.906461 2.968443 0.028837 0.207438 -0.296746
187 2.968933 8.906343 4.156458 0.177352 0.095896 0.202514
188 2.968795 8.906597 5.343746 0.044964 0.345738 -0.004361
189 2.968309 8.906219 6.530990 -0.441663 -0.032891 -0.254506
190 2.968648 8.906500 7.719031 -0.098599 0.251895 0.280015
191 2.968847 8.906822 8.906827 0.100492 0.564346 0.572020
192 4.156084 0.593647 0.593700 -0.164899 -0.102362 -0.047655
193 4.156130 0.593475 1.780996 -0.115175 -0.273448 -0.255409
194 4.157053 0.594096 2.968173 0.795737 0.347604 -0.573154
195 4.156214 0.593375 4.155969 -0.029929 -0.366944 -0.286484
196 4.155795 0.594153 5.343049 -0.449771 0.392261 -0.690421
197 4.156236 0.593955 6.531712 -0.010632 0.202447 0.442789
198 4.156174 0.593829 7.717807 -0.077114 0.074774 -0.923170
199 4.155944 0.593599 8.906667 -0.299678 -0.149038 0.403490
200 4.155407 1.781271 0.593491 -0.830432 0.021162 -0.257018
201 4.156218 1.781135 1.781416 -0.033031 -0.111299 0.160304
202 4.156480 1.781589 2.968629 0.227384 0.340844 -0.116009
203 4.156398 1.781664 4.156532 0.148607 0.404997 0.277569
204 4.156414 1.780981 5.343762 0.158953 -0.261532 0.015252
205 4.156614 1.781016 6.531402 0.359467 -0.229211 0.150166
206 4.156083 1.781203 7.718822 -0.159558 -0.042477 0.069441
207 4.156303 1.781274 8.905919 0.057881 0.020281 -0.327628
208 4.156092 2.968861 0.594056 -0.157612 0.110294 0.304842
209 4.156024 2.969310 1.781846 -0.217537 0.550297 0.592138
210 4.155994 2.969283 2.969098 -0.256781 0.530094 0.343777
211 4.156213 2.968606 4.155686 -0.037467 -0.140649 -0.555484
212 4.156045 2.968814 5.343524 -0.200998 0.059048 -0.225765
213 4.156361 2.968706 6.531474 0.107016 -0.048830 0.218286
214 4.156445 2.969146 7.718680 0.191325 0.391744 -0.068777
215 4.156295 2.968444 8.906103 0.046629 -0.302828 -0.143240
216 4.156131 4.156348 0.593487 -0.115247 0.100682 -0.262022
217 4.156437 4.156168 1.781147 0.182949 -0.076455 -0.104949
218 4.156548 4.156625 2.968538 0.292265 0.371897 -0.208963
219 4.156236 4.156037 4.156283 -0.014182 -0.212796 0.034232
220 4.156348 4.155986 5.344148 0.099690 -0.261174 0.395110
221 4.156503 4.155806 6.531636 0.248370 -0.437084 0.385876
222 4.156587 4.156451 7.719107 0.334622 0.202176 0.352911
223 4.156223 4.156140 8.906044 -0.025957 -0.109981 -0.202619
224 4.156269 5.344213 0.593699 0.024167 0.460019 -0.054009
225 4.156158 5.343724 1.781031 -0.092188 -0.029732 -0.220865
226 4.155836 5.343530 2.968189 -0.408093 -0.215775 -0.555264
227 4.156192 5.343597 4.156154 -0.053381 -0.159927 -0.095591
228 4.155646 5.343504 5.344191 -0.597215 -0.243364 0.429890
229 4.155986 5.343862 6.530774 -0.262641 0.107805 -0.468605
230 4.156547 5.343901 7.718476 0.294550 0.149220 -0.275682
231 4.156377 5.343770 8.905961 0.123155 0.017278 -0.287276
232 4.156976 6.531663 0.593113 0.721280 0.414519 -0.627023
233 4.156544 6.530771 1.781622 0.290027 -0.475263 0.363887
234 4.155914 6.530993 2.968981 -0.327387 -0.248357 0.230750
235 4.156218 6.530274 4.156260 -0.036800 -0.963889 0.014869
236 4.156406 6.531391 5.344132 0.153849 0.138880 0.378190
237 4.155779 6.531311 6.531478 -0.462484 0.061546 0.228592
238 4.156258 6.531055 7.718837 0.012379 -0.188779 0.085866
239 4.155676 6.531057 8.906060 -0.567574 -0.189596 -0.191255
240 4.156502 7.719172 0.593649 0.250899 0.417967 -0.096921
241 4.156111 7.718329 1.781315 -0.144370 -0.420084 0.060070
242 4.156299 7.719514 2.968371 0.052346 0.755251 -0.372393
243 4.156536 7.718590 4.156368 0.280699 -0.165518 0.114016
244 4.156053 7.718891 5.343839 -0.201613 0.137954 0.086327
245 4.156117 7.718891 6.530948 -0.126029 0.141244 -0.299030
246 4.156532 7.718961 7.718545 0.279399 0.204207 -0.202241
247 4.156196 7.718786 8.906531 -0.050903 0.033683 0.275197
248 4.155388 8.906076 0.593498 -0.843920 -0.168645 -0.248106
249 4.156660 8.906130 1.781469 0.402395 -0.123531 0.211813
250 4.156222 8.906764 2.968420 -0.030307 0.515334 -0.324117
251 4.155877 8.906291 4.156156 -0.366488 0.035946 -0.092457
252 4.156213 8.905923 5.344119 -0.039303 -0.318921 0.364434
253 4.155962 8.906520 6.531349 -0.284923 0.268687 0.100612
254 4.156369 8.905978 7.718787 0.114348 -0.265991 0.036304
255 4.156344 8.906257 8.906053 0.095021 0.006241 -0.195906
256 5.344006 0.594037 0.593878 0.252459 0.279552 0.125399
257 5.343918 0.593953 1.781002 0.168299 0.198845 -0.243579
258 5.344592 0.593651 2.968740 0.840329 -0.097973 -0.014372
259 5.343991 0.593835 4.155823 0.239990 0.085064 -0.418404
260 5.343807 0.593944 5.344027 0.052300 0.189758 0.269426
261 5.343873 0.594192 6.531209 0.118851 0.439156 -0.041754
262 5.343136 0.594349 7.718333 -0.604464 0.589466 -0.410676
263 5.343937 0.594052 8.906377 0.178378 0.295010 0.123313
264 5.343749 1.781120 0.593979 -0.005876 -0.127255 0.222027
265 5.343800 1.781241 1.780823 0.046905 -0.005151 -0.424160
266 5.344092 1.781316 2.968170 0.333791 0.066468 -0.574659
267 5.344032 1.781189 4.156268 0.281213 -0.060755 0.011312
268 5.343198 1.781352 5.343475 -0.542413 0.103954 -0.275785
269 5.343809 1.781611 6.530667 0.062331 0.358894 -0.575498
270 5.344449 1.781189 7.718914 0.688519 -0.057441 0.157249
271 5.343888 1.781060 8.906177 0.137995 -0.186309 -0.069464
272 5.342969 2.968558 0.593758 -0.772860 -0.189924 0.011423
273 5.344286 2.969056 1.781821 0.532025 0.299506 0.564183
274 5.343469 2.969038 2.968960 -0.277429 0.283909 0.212968
275 5.343799 2.968567 4.156415 0.045366 -0.176734 0.165352
276 5.343810 2.969021 5.343897 0.056045 0.267513 0.144458
277 5.343578 2.968739 6.530999 -0.169433 -0.009905 -0.247413
278 5.343602 2.968527 7.718593 -0.145012 -0.217000 -0.157332
279 5.343976 2.968562 8.906172 0.220733 -0.189153 -0.077979
280 5.343658 4.156315 0.593666 -0.092151 0.063288 -0.081536
281 5.343285 4.156067 1.781494 -0.459730 -0.177614 0.239761
282 5.343660 4.156268 2.968771 -0.084976 0.022765 0.023548
283 5.343886 4.156773 4.156423 0.133996 0.512735 0.169846
284 5.343720 4.156194 5.343592 -0.032373 -0.053492 -0.152710
285 5.343903 4.155983 6.531558 0.156935 -0.260794 0.304826
286 5.344499 4.156652 7.719080 0.738385 0.394605 0.326010
287 5.343788 4.155889 8.906092 0.035733 -0.356279 -0.154189
288 5.343990 5.343791 0.593765 0.239966 0.040987 0.016359
289 5.343726 5.343805 1.781119 -0.022402 0.050215 -0.127632
290 5.344198 5.344226 2.968927 0.439518 0.466763 0.173608
291 5.344036 5.343492 4.156239 0.281665 -0.254880 -0.009268
292 5.343614 5.343708 5.343790 -0.136822 -0.045052 0.037847
293 5.343985 5.344070 6.531079 0.226746 0.313897 -0.168925
294 5.344049 5.343726 7.718678 0.294669 -0.024835 -0.070109
295 5.343350 5.343900 8.906537 -0.393691 0.143518 0.282677
296 5.343829 6.531349 0.594128 0.085700 0.095161 0.374797
297 5.343798 6.530872 1.781532 0.047685 -0.373715 0.279200
298 5.343970 6.530882 2.968513 0.211183 -0.356945 -0.232252
299 5.343371 6.530686 4.156128 -0.379675 -0.558171 -0.122744
300 5.343684 6.530852 5.343696 -0.060356 -0.395527 -0.054384
301 5.344084 6.531278 6.531261 0.324254 0.027245 0.011158
302 5.344341 6.530702 7.718799 0.580832 -0.542370 0.048223
303 5.343905 6.531031 8.906166 0.147011 -0.210990 -0.079552
304 5.343810 7.718334 0.593552 0.061419 -0.411481 -0.193763
305 5.343497 7.718497 1.781829 -0.253841 -0.253556 0.570898
306 5.343952 7.718942 2.968991 0.197225 0.185700 0.241395
307 5.344310 7.718675 4.156162 0.555905 -0.077581 -0.084814
308 5.343255 7.718439 5.343733 -0.488231 -0.311237 -0.017387
309 5.344384 7.718364 6.531219 0.623515 -0.380063 -0.031656
310 5.343780 7.718418 7.718631 0.030674 -0.332425 -0.119961
311 5.343755 7.719241 8.905889 0.006779 0.481663 -0.358603
312 5.344242 8.905989 0.593855 0.479812 -0.258588 0.097390
313 5.343610 8.906044 1.780991 -0.140213 -0.203064 -0.254805
314 5.343431 8.906150 2.968698 -0.316570 -0.097957 -0.057362
315 5.343775 8.906377 4.155720 0.016262 0.125419 -0.525223
316 5.343300 8.906009 5.343421 -0.443936 -0.238862 -0.329523
317 5.344098 8.906294 6.531153 0.343084 0.043670 -0.095073
318 5.343469 8.906139 7.719194 -0.276005 -0.106717 0.432046
319 5.343907 8.906070 8.905624 0.156169 -0.171014 -0.612575
320 6.531438 0.594014 0.593585 0.189303 0.255594 -0.164700
321 6.531756 0.593795 1.781582 0.502378 0.045041 0.327646
322 6.531783 0.593786 2.968945 0.531320 0.035567 0.194431
323 6.531606 0.593167 4.156277 0.352992 -0.579401 0.032101
324 6.531142 0.593329 5.344293 -0.103868 -0.413364 0.535769
325 6.530906 0.593543 6.531261 -0.340711 -0.205276 0.017330
326 6.531505 0.593527 7.719055 0.248339 -0.218892 0.296421
327 6.530777 0.593933 8.905750 -0.468744 0.187920 -0.492352
328 6.531433 1.780847 0.594079 0.178501 -0.391803 0.324493
329 6.531065 1.781391 1.781000 -0.185511 0.144573 -0.244290
330 6.530639 1.780683 2.968665 -0.601442 -0.557553 -0.084314
331 6.531464 1.781266 4.156453 0.216490 0.009453 0.200239
332 6.531350 1.781226 5.343851 0.097849 -0.026827 0.101083
333 6.531398 1.781227 6.531239 0.144320 -0.024896 -0.005379
334 6.531328 1.781796 7.719291 0.085425 0.536870 0.535296
335 6.531518 1.781954 8.906525 0.265210 0.690670 0.278165
336 6.531019 2.969316 0.594169 -0.231405 0.554085 0.411338
337 6.531861 2.969342 1.781434 0.609649 0.582517 0.182933
338 6.531451 2.968969 2.968628 0.197659 0.215070 -0.118659
339 6.530955 2.968488 4.156254 -0.286728 -0.262938 0.005964
340 6.530996 2.968777 5.344209 -0.247468 0.027651 0.453885
341 6.531121 2.968699 6.531434 -0.125157 -0.050098 0.187952
342 6.531248 2.968826 7.719165 -0.009130 0.079505 0.407319
343 6.530916 2.968113 8.905903 -0.323652 -0.622356 -0.335720
344 6.531187 4.156142 0.593445 -0.065456 -0.102361 -0.301246
345 6.530907 4.156069 1.780973 -0.343585 -0.177593 -0.275498
346 6.531432 4.156680 2.968767 0.178804 0.428770 0.012729
347 6.531321 4.155695 4.156017 0.069187 -0.548304 -0.228619
348 6.530823 4.156399 5.343886 -0.419942 0.146526 0.132913
349 6.531855 4.156273 6.531294 0.596375 0.021727 0.051465
350 6.530954 4.156216 7.719619 -0.288752 -0.031316 0.858054
351 6.531080 4.156288 8.906443 -0.167121 0.034526 0.194374
352 6.531607 5.343753 0.593452 0.351504 0.000964 -0.288407
353 6.531574 5.343268 1.781893 0.316132 -0.480704 0.633979
354 6.531334 5.344165 2.968994 0.084024 0.408534 0.247923
355 6.531222 5.343935 4.156606 -0.026993 0.177366 0.351739
356 6.531495 5.343724 5.343552 0.242933 -0.020866 -0.197647
357 6.530928 5.343708 6.530584 -0.316278 -0.042435 -0.657982
358 6.530981 5.343979 7.718805 -0.263625 0.223461 0.049437
359 6.531222 5.343924 8.906335 -0.032547 0.172248 0.081476
360 6.531580 6.531048 0.593533 0.324071 -0.199056 -0.212950
361 6.531025 6.530775 1.781532 -0.220040 -0.469313 0.272072
362 6.530881 6.530697 2.968195 -0.360483 -0.540402 -0.546268
363 6.530552 6.531100 4.156105 -0.689100 -0.145967 -0.147716
364 6.531636 6.531794 5.343755 0.376699 0.539103 0.004544
365 6.531149 6.531054 6.531343 -0.095648 -0.193594 0.089363
366 6.530973 6.530949 7.718472 -0.264910 -0.294385 -0.275056
367 6.531048 6.531282 8.906077 -0.200142 0.027807 -0.173842
368 6.531263 7.718714 0.593453 0.013867 -0.037810 -0.289545
369 6.530869 7.719015 1.781936 -0.373801 0.258220 0.675222
370 6.530911 7.718892 2.968890 -0.332677 0.139371 0.141900
371 6.531383 7.718823 4.156092 0.133388 0.066143 -0.155444
372 6.531503 7.719089 5.343689 0.240899 0.340908 -0.060335
373 6.531206 7.718772 6.531427 -0.044323 0.019089 0.175091
374 6.531195 7.718750 7.718828 -0.058488 -0.004166 0.076515
375 6.531586 7.718062 8.906029 0.329306 -0.675822 -0.219049
376 6.531384 8.906126 0.593904 0.136800 -0.120839 0.151981
377 6.530564 8.906228 1.781271 -0.678852 -0.019568 0.028776
378 6.531101 8.906789 2.969754 -0.152662 0.532930 0.993998
379 6.530530 8.905686 4.156709 -0.711600 -0.560845 0.458105
380 6.531316 8.906549 5.343406 0.059573 0.294658 -0.335884
381 6.531541 8.906105 6.531164 0.285804 -0.143923 -0.086824
382 6.531240 8.905898 7.718847 -0.010206 -0.348394 0.094142
383 6.531373 8.906515 8.906221 0.125199 0.257680 -0.025839
384 7.718982 0.594086 0.593867 0.230978 0.331063 0.115228
385 7.719053 0.593799 1.781498 0.297327 0.047586 0.246189
386 7.718636 0.593510 2.968840 -0.106988 -0.238168 0.094535
387 7.718814 0.593616 4.156722 0.067576 -0.127297 0.461778
388 7.719010 0.594200 5.343146 0.252878 0.446939 -0.591970
389 7.718467 0.593582 6.531274 -0.282464 -0.167549 0.020026
390 7.718938 0.593198 7.718899 0.188462 -0.546363 0.144852
391 7.718320 0.593709 8.905997 -0.424808 -0.042445 -0.247250
392 7.718470 1.781500 0.593641 -0.276274 0.249673 -0.110484
393 7.718370 1.781194 1.781002 -0.377170 -0.054016 -0.247823
394 7.718528 1.781505 2.968399 -0.224683 0.247976 -0.347063
395 7.719149 1.781182 4.156456 0.394007 -0.067233 0.205391
396 7.719201 1.781063 5.344378 0.443858 -0.182488 0.620660
397 7.718443 1.781151 6.531149 -0.297812 -0.098693 -0.092065
398 7.719256 1.780875 7.719142 0.498027 -0.376685 0.384052
399 7.718724 1.781268 8.906136 -0.024209 0.020453 -0.110343
400 7.719047 2.968773 0.594252 0.288133 0.027638 0.506599
401 7.719132 2.968886 1.782094 0.378759 0.132570 0.838859
402 7.718947 2.968574 2.969077 0.193789 -0.172037 0.330404
403 7.719202 2.968820 4.156439 0.442937 0.064808 0.188542
404 7.719070 2.968461 5.343723 0.316137 -0.282298 -0.022477
405 7.719242 2.968823 6.531608 0.484432 0.074485 0.353530
406 7.717926 2.968473 7.718853 -0.818011 -0.276531 0.109612
407 7.719233 2.969114 8.906985 0.474559 0.360228 0.729645
408 7.718414 4.156689 0.593555 -0.330174 0.434797 -0.189191
409 7.718493 4.156110 1.781533 -0.254831 -0.136118 0.274360
410 7.718802 4.156237 2.968338 0.057623 -0.016492 -0.404651
411 7.718435 4.155725 4.156147 -0.311544 -0.519483 -0.104300
412 7.718895 4.156781 5.343731 0.138176 0.521970 -0.020561
413 7.718521 4.156620 6.531118 -0.224203 0.364131 -0.130381
414 7.718427 4.156140 7.718694 -0.314633 -0.110529 -0.055664
415 7.718717 4.156301 8.906385 -0.030445 0.055756 0.130523
416 7.718487 5.343911 0.593774 -0.256625 0.160819 0.029363
417 7.718388 5.343886 1.781893 -0.353857 0.134434 0.632824
418 7.718493 5.343389 2.968607 -0.254125 -0.356677 -0.137762
419 7.718550 5.343452 4.155949 -0.198022 -0.296010 -0.302960
420 7.719019 5.343773 5.343149 0.269464 0.029436 -0.593385
421 7.718671 5.343661 6.531502 -0.076202 -0.089512 0.243363
422 7.718669 5.343712 7.718701 -0.083714 -0.040115 -0.045415
423 7.718538 5.344075 8.906397 -0.210066 0.321491 0.144344
424 7.718522 6.531061 0.593729 -0.219760 -0.187022 -0.022981
425 7.718939 6.531376 1.780895 0.184246 0.120917 -0.351516
426 7.718912 6.531234 2.968634 0.156538 -0.016425 -0.115445
427 7.719007 6.531503 4.156447 0.248664 0.246355 0.193388
428 7.718350 6.531619 5.343705 -0.392493 0.367498 -0.040474
429 7.718922 6.530712 6.531496 0.168824 -0.529565 0.240750
430 7.719197 6.531045 7.718555 0.440285 -0.202701 -0.190257
431 7.718499 6.531342 8.906254 -0.245686 0.092263 0.002396
432 7.718843 7.718515 0.593920 0.093280 -0.234914 0.168340
433 7.719148 7.718182 1.781403 0.385516 -0.559395 0.149939
434 7.718779 7.719005 2.968562 0.026590 0.247934 -0.186341
435 7.718463 7.718679 4.156019 -0.280062 -0.064013 -0.230871
436 7.718113 7.719169 5.343590 -0.626330 0.420167 -0.162285
437 7.718067 7.718971 6.530871 -0.672764 0.212457 -0.370275
438 7.718103 7.718724 7.719379 -0.637792 -0.026925 0.617169
439 7.718476 7.718688 8.906195 -0.267782 -0.063195 -0.047571
440 7.718822 8.906009 0.594148 0.069704 -0.237065 0.394327
441 7.718636 8.906228 1.781766 -0.114777 -0.024959 0.510592
442 7.718240 8.905793 2.968646 -0.502730 -0.450458 -0.096016
443 7.718538 8.906874 4.156654 -0.213681 0.614065 0.396560
444 7.718432 8.906892 5.343720 -0.313260 0.638906 -0.028935
445 7.718199 8.906063 6.530920 -0.537821 -0.184803 -0.326675
446 7.719044 8.906297 7.718658 0.291483 0.042249 -0.095292
447 7.719056 8.905901 8.905994 0.300953 -0.345158 -0.249772
448 8.906342 0.593307 0.593176 0.093343 -0.431338 -0.566591
449 8.905558 0.593653 1.781287 -0.681026 -0.100044 0.030971
450 8.906354 0.593484 2.968535 0.105421 -0.256939 -0.214729
451 8.906483 0.593417 4.155954 0.230495 -0.326868 -0.292258
452 8.905940 0.593821 5.343975 -0.301753 0.069368 0.216630
453 8.906188 0.593515 6.530851 -0.063811 -0.224250 -0.392469
454 8.906393 0.594011 7.718627 0.140357 0.258080 -0.125033
455 8.906694 0.593592 8.906124 0.436555 -0.158219 -0.130115
456 8.906080 1.781651 0.593827 -0.166858 0.392331 0.075931
457 8.906145 1.781101 1.781147 -0.103426 -0.148974 -0.095806
458 8.906073 1.781559 2.969415 -0.174844 0.301585 0.655367
459 8.906175 1.781083 4.156278 -0.070512 -0.167943 0.031776
460 8.906060 1.780769 5.343547 -0.184509 -0.472603 -0.200197
461 8.906764 1.781626 6.531305 0.503836 0.369156 0.055212
462 8.906033 1.781456 7.719111 -0.211411 0.202673 0.356945
463 8.906228 1.781356 8.906279 -0.020874 0.102506 0.032145
464 8.905918 2.968791 0.593880 -0.324721 0.043826 0.124536
465 8.905922 2.968613 1.781079 -0.319898 -0.131507 -0.165982
466 8.905983 2.968644 2.968966 -0.258087 -0.101486 0.209921
467 8.906203 2.968620 4.156039 -0.043529 -0.131041 -0.203341
468 8.906655 2.968877 5.344187 0.399558 0.124053 0.429707
469 8.906301 2.968767 6.531308 0.052959 0.021110 0.059944
470 8.905508 2.968500 7.718684 -0.738428 -0.246000 -0.066689
471 8.906293 2.968658 8.905978 0.044668 -0.090624 -0.268428
472 8.906447 4.156317 0.593656 0.193850 0.066783 -0.091168
473 8.906407 4.156855 1.781654 0.153362 0.596881 0.395403
474 8.906937 4.156266 2.968483 0.680523 0.016353 -0.260933
475 8.906044 4.156071 4.156176 -0.205483 -0.174073 -0.078791
476 8.906090 4.156566 5.343286 -0.157437 0.314362 -0.459868
477 8.905806 4.156389 6.531043 -0.441185 0.138076 -0.205795
478 8.906988 4.156110 7.718979 0.726866 -0.141552 0.223140
479 8.906634 4.156113 8.906049 0.377913 -0.135590 -0.197328
480 8.906228 5.343845 0.593886 -0.023171 0.092224 0.136017
481 8.906307 5.343925 1.781368 0.055380 0.176778 0.112206
482 8.906048 5.343869 2.968135 -0.204326 0.119907 -0.605867
483 8.906128 5.344196 4.156236 -0.121034 0.433674 -0.014640
484 8.906526 5.344060 5.344184 0.273148 0.310086 0.428419
485 8.906773 5.343912 6.531221 0.514106 0.157920 -0.025425
486 8.905982 5.343488 7.718768 -0.264374 -0.262871 0.018981
487 8.906059 5.343747 8.906434 -0.194901 -0.002335 0.182136
488 8.906610 6.530973 0.593706 0.349802 -0.269246 -0.040575
489 8.906137 6.531259 1.781242 -0.110101 0.008916 -0.006866
490 8.906222 6.531489 2.968908 -0.021503 0.236441 0.160010
491 8.906232 6.530654 4.156742 -0.016096 -0.582454 0.483029
492 8.906175 6.531588 5.343350 -0.078469 0.340219 -0.389639
493 8.906199 6.530930 6.531370 -0.048068 -0.312718 0.116106
494 8.906423 6.530788 7.718850 0.178996 -0.457738 0.101793
495 8.906726 6.531539 8.906575 0.468719 0.285136 0.321048
496 8.906480 7.719154 0.593448 0.228076 0.398974 -0.295836
497 8.905773 7.718621 1.781616 -0.469526 -0.130995 0.359653
498 8.906292 7.718669 2.968831 0.039342 -0.075797 0.079357
499 8.906477 7.719065 4.155799 0.221682 0.308140 -0.447789
500 8.906208 7.719290 5.343355 -0.050748 0.538003 -0.394858
501 8.906310 7.718942 6.530928 0.054559 0.191308 -0.318851
502 8.906341 7.718729 7.718989 0.087946 -0.026181 0.232159