ITEM: TIMESTEP
0
ITEM: NUMBER OF ATOMS
512
ITEM: BOX BOUNDS pp pp pp
0 9.500000
0 9.500000
0 9.500000
ITEM: ATOMS id x y z vx vy vz 
0 0.593634 0.593289 0.593221 -0.113938 -0.455143 -0.520432
1 0.593691 0.593891 1.781573 -0.060673 0.134109 0.316132
2 0.594101 0.593705 2.968991 0.347870 -0.045918 0.239387
3 0.593986 0.593729 4.156195 0.228249 -0.019653 -0.050481
4 0.593711 0.593692 5.344060 -0.040728 -0.054147 0.302746
5 0.593843 0.593974 6.530954 0.086566 0.221212 -0.290112
6 0.593728 0.593429 7.718718 -0.030450 -0.316231 -0.035187
7 0.593201 0.593611 8.906166 -0.542264 -0.137369 -0.086744
8 0.593645 1.781059 0.593409 -0.103797 -0.195328 -0.332621
9 0.593261 1.780686 1.781312 -0.485026 -0.555788 0.058882
10 0.593751 1.780886 2.968821 -0.000643 -0.353834 0.069379
11 0.593608 1.781042 4.156145 -0.136865 -0.202120 -0.103422
12 0.594130 1.781580 5.343651 0.373305 0.322932 -0.097591
13 0.593950 1.781008 6.531316 0.194112 -0.237363 0.067062
14 0.594221 1.780791 7.719057 0.463931 -0.453884 0.306129
15 0.594104 1.781546 8.906669 0.347693 0.289127 0.412483
16 0.593510 2.968364 0.593702 -0.235472 -0.382414 -0.047458
17 0.593692 2.968673 1.780856 -0.055047 -0.078722 -0.392791
18 0.593863 2.969455 2.968292 0.114904 0.694908 -0.458768
19 0.593792 2.969141 4.155727 0.040935 0.383019 -0.521133
20 0.593465 2.968521 5.343560 -0.278570 -0.228384 -0.192255
21 0.593825 2.968742 6.531125 0.073908 -0.007716 -0.122082
22 0.593599 2.968932 7.719091 -0.148908 0.180273 0.336927
23 0.594102 2.968504 8.906533 0.346767 -0.246774 0.281153
24 0.593831 4.156249 0.593574 0.082036 -0.006496 -0.170547
25 0.593837 4.156409 1.781456 0.088739 0.152815 0.202033
26 0.594203 4.156675 2.968699 0.445850 0.425345 -0.044656
27 0.593468 4.156113 4.156712 -0.277149 -0.131794 0.455305
28 0.593637 4.155668 5.343797 -0.109349 -0.576847 0.049526
29 0.593675 4.156516 6.531140 -0.072331 0.262176 -0.110748
30 0.593156 4.156828 7.718471 -0.581053 0.573620 -0.274428
31 0.593202 4.155399 8.906408 -0.536188 -0.842041 0.151945
32 0.593867 5.343470 0.593982 0.111225 -0.275279 0.227616
33 0.594006 5.343284 1.781242 0.251282 -0.462156 -0.007556
34 0.593472 5.343820 2.968576 -0.278029 0.070804 -0.170943
35 0.594242 5.343797 4.156376 0.482381 0.048693 0.125015
36 0.594011 5.343599 5.344103 0.256453 -0.154113 0.351163
37 0.594214 5.343749 6.531522 0.454545 0.005001 0.267196
38 0.593573 5.344029 7.718277 -0.176338 0.280834 -0.464891
39 0.593409 5.343646 8.906122 -0.340249 -0.109683 -0.127772
40 0.593660 6.531352 0.593620 -0.083587 0.099897 -0.126208
41 0.593776 6.530692 1.781266 0.023886 -0.552881 0.015109
42 0.593762 6.530975 2.968855 0.011611 -0.270158 0.100349
43 0.593766 6.531654 4.155780 0.018070 0.399187 -0.462606
44 0.593264 6.531178 5.343703 -0.478997 -0.071617 -0.053068
45 0.593654 6.531780 6.530883 -0.093864 0.519761 -0.364064
46 0.593499 6.531441 7.718496 -0.251402 0.189842 -0.251740
47 0.593932 6.531166 8.906513 0.178125 -0.082481 0.256822
48 0.593919 7.718950 0.593450 0.165062 0.198433 -0.294284
49 0.593446 7.718795 1.781653 -0.295464 0.039669 0.394655
50 0.594319 7.718777 2.968747 0.561756 0.026083 0.001350
51 0.593621 7.718779 4.156377 -0.129974 0.034378 0.124763
52 0.593888 7.718858 5.343715 0.138004 0.107267 -0.033361
53 0.593558 7.718426 6.531308 -0.189960 -0.313423 0.055976
54 0.593584 7.718711 7.718602 -0.163027 -0.033117 -0.147556
55 0.594480 7.718870 8.905984 0.720081 0.114084 -0.266185
56 0.593877 8.906302 0.593775 0.126422 0.049804 0.026158
57 0.593914 8.906134 1.781584 0.161164 -0.113234 0.327949
58 0.593640 8.906412 2.968553 -0.111823 0.159901 -0.189899
59 0.593304 8.906588 4.156461 -0.441719 0.333086 0.202802
60 0.593760 8.906367 5.343267 0.009015 0.115457 -0.478967
61 0.593353 8.906550 6.530722 -0.392672 0.294724 -0.520087
62 0.593148 8.906728 7.719313 -0.594068 0.468887 0.550455
63 0.593653 8.905806 8.906162 -0.095548 -0.437912 -0.081999
64 1.781308 0.593199 0.594300 0.057472 -0.540869 0.535913
65 1.780973 0.594352 1.781025 -0.275995 0.591781 -0.219231
66 1.781422 0.593800 2.968570 0.171726 0.050342 -0.180615
67 1.780898 0.593758 4.156124 -0.343969 0.011679 -0.121530
68 1.780590 0.593644 5.344304 -0.653021 -0.104352 0.547144
69 1.780837 0.594036 6.531521 -0.405044 0.286577 0.272268
70 1.780652 0.593732 7.718901 -0.590301 -0.014249 0.146240
71 1.780960 0.593592 8.905599 -0.287610 -0.150146 -0.636912
72 1.781023 1.781385 0.594158 -0.221343 0.129775 0.403230
73 1.781346 1.781124 1.781010 0.093472 -0.121551 -0.234805
74 1.781467 1.781172 2.968559 0.213441 -0.074070 -0.188917
75 1.781318 1.781465 4.156381 0.061686 0.208342 0.127256
76 1.781098 1.781094 5.343738 -0.146471 -0.151776 -0.010350
77 1.781157 1.781486 6.531299 -0.089157 0.235672 0.051278
78 1.781213 1.781348 7.719151 -0.031204 0.099012 0.398741
79 1.780980 1.781647 8.906593 -0.265112 0.393947 0.344865
80 1.780875 2.968923 0.593673 -0.375138 0.174883 -0.073922
81 1.781138 2.968532 1.781426 -0.109765 -0.214847 0.173581
82 1.781869 2.969080 2.968775 0.614361 0.327005 0.023711
83 1.781336 2.968241 4.155909 0.085133 -0.500474 -0.337143
84 1.781624 2.969205 5.343549 0.367400 0.448852 -0.204690
85 1.780897 2.968906 6.530697 -0.348888 0.158469 -0.545984
86 1.781547 2.969022 7.718909 0.291802 0.270402 0.153260
87 1.781381 2.969260 8.906395 0.131953 0.504444 0.143725
88 1.781700 4.156672 0.594197 0.445268 0.416179 0.438137
89 1.781618 4.156349 1.781128 0.362617 0.097169 -0.118077
90 1.780738 4.156534 2.968625 -0.504973 0.280560 -0.123331
91 1.781426 4.156250 4.156327 0.171473 -0.001429 0.074710
92 1.781198 4.156400 5.343719 -0.053013 0.152481 -0.031907
93 1.781342 4.156657 6.531035 0.089595 0.401749 -0.214866
94 1.781722 4.156489 7.718440 0.459435 0.242093 -0.309051
95 1.781336 4.156010 8.905972 0.082524 -0.234942 -0.272865
96 1.780856 5.343550 0.593913 -0.389602 -0.192107 0.158579
97 1.781086 5.344004 1.781226 -0.158439 0.251244 -0.023272
98 1.780821 5.343535 2.968692 -0.422937 -0.209423 -0.057417
99 1.781151 5.344096 4.156278 -0.096343 0.340609 0.029178
100 1.781066 5.343871 5.344063 -0.178681 0.121443 0.311845
101 1.781235 5.343705 6.531683 -0.010826 -0.040298 0.429819
102 1.781441 5.344391 7.718746 0.188451 0.634099 -0.002495
103 1.780805 5.343472 8.905990 -0.440764 -0.275905 -0.255422
104 1.781849 6.531471 0.593072 0.588922 0.210940 -0.661720
105 1.781287 6.531276 1.781498 0.035483 0.027147 0.237611
106 1.781596 6.531364 2.968550 0.343690 0.109560 -0.196375
107 1.781066 6.531186 4.156042 -0.181573 -0.061700 -0.207073
108 1.781399 6.531336 5.343616 0.143042 0.087992 -0.134794
109 1.781640 6.531379 6.531051 0.381417 0.128432 -0.193592
110 1.780791 6.531256 7.719259 -0.460042 0.014274 0.504595
111 1.781309 6.531324 8.906825 0.062871 0.066559 0.565598
112 1.780862 7.718038 0.593619 -0.380909 -0.698844 -0.126118
113 1.781672 7.718736 1.781422 0.413338 -0.013902 0.167252
114 1.781286 7.718579 2.968536 0.042072 -0.165807 -0.213264
115 1.781297 7.718657 4.155710 0.045935 -0.090464 -0.536487
116 1.781050 7.719028 5.343400 -0.196639 0.275160 -0.349407
117 1.781047 7.719041 6.531214 -0.204279 0.290233 -0.036762
118 1.781087 7.719200 7.718882 -0.162049 0.446970 0.131113
119 1.781430 7.718215 8.906441 0.186455 -0.524849 0.187909
120 1.781418 8.906441 0.593791 0.166365 0.178801 0.040054
121 1.781406 8.906129 1.781207 0.155237 -0.114784 -0.041114
122 1.781187 8.906511 2.968849 -0.060510 0.256338 0.098905
123 1.781034 8.906522 4.156424 -0.213875 0.267211 0.170317
124 1.780803 8.906384 5.343500 -0.441774 0.132714 -0.245671
125 1.780973 8.906614 6.531156 -0.281118 0.363279 -0.092628
126 1.781298 8.906598 7.719048 0.042064 0.345637 0.293314
127 1.781035 8.906527 8.906327 -0.212565 0.267530 0.078726
128 2.968822 0.593440 0.594049 0.071975 -0.307580 0.291050
129 2.968508 0.593689 1.781360 -0.240789 -0.061154 0.112042
130 2.968603 0.594371 2.968848 -0.144817 0.617447 0.096632
131 2.968901 0.593419 4.156105 0.150741 -0.329981 -0.143927
132 2.968466 0.593677 5.343583 -0.285818 -0.065927 -0.165372
133 2.968871 0.593920 6.531369 0.119336 0.169770 0.114363
134 2.968720 0.593612 7.718505 -0.035754 -0.138889 -0.245020
135 2.969055 0.594324 8.905639 0.297248 0.570003 -0.601620
136 2.969231 1.781252 0.593872 0.474895 -0.003633 0.118812
137 2.969030 1.781100 1.780994 0.279376 -0.149381 -0.251335
138 2.968764 1.781616 2.968735 0.018405 0.366316 -0.014342
139 2.968229 1.780906 4.156612 -0.515931 -0.338223 0.357180
140 2.968800 1.781665 5.343802 0.051290 0.412495 0.053540
141 2.968867 1.781780 6.531259 0.113515 0.524096 0.007844
142 2.968963 1.781183 7.718545 0.210272 -0.065979 -0.201273
143 2.968574 1.781310 8.906323 -0.179225 0.061891 0.071845
144 2.968229 2.968290 0.593621 -0.511839 -0.454712 -0.126159
145 2.968966 2.968618 1.781311 0.209760 -0.130795 0.060004
146 2.969149 2.968867 2.968871 0.398748 0.118412 0.120232
147 2.968847 2.969311 4.156272 0.094223 0.551650 0.024506
148 2.968765 2.969218 5.344066 0.018426 0.462904 0.312243
149 2.968652 2.968813 6.531358 -0.098290 0.066766 0.111962
150 2.968826 2.968946 7.719085 0.076173 0.192439 0.331412
151 2.968699 2.968589 8.906265 -0.047983 -0.155079 0.016487
152 2.968838 4.156063 0.594033 0.087774 -0.189523 0.281643
153 2.968624 4.156228 1.781469 -0.125333 -0.023348 0.220041
154 2.968318 4.156276 2.969004 -0.429049 0.023887 0.255682
155 2.968731 4.156433 4.156767 -0.011695 0.183556 0.510624
156 2.968640 4.156152 5.343623 -0.110453 -0.094496 -0.120398
157 2.968665 4.156418 6.531303 -0.079084 0.168199 0.053613
158 2.968531 4.156262 7.719063 -0.213241 0.013533 0.310085
159 2.969013 4.156672 8.906385 0.257972 0.418821 0.137414
160 2.968523 5.343531 0.593732 -0.226104 -0.215432 -0.014802
161 2.968863 5.343691 1.781425 0.107686 -0.057235 0.174295
162 2.969067 5.343433 2.969007 0.308986 -0.312473 0.255786
163 2.968406 5.343601 4.156380 -0.340063 -0.144715 0.130774
164 2.968850 5.343574 5.343842 0.098332 -0.174096 0.091283
165 2.968772 5.343986 6.531190 0.023249 0.234508 -0.058062
166 2.968889 5.343785 7.718841 0.141438 0.033235 0.090366
167 2.968819 5.344254 8.906470 0.064772 0.500136 0.217163
168 2.968584 6.531565 0.593573 -0.159373 0.307103 -0.174244
169 2.968593 6.531452 1.781163 -0.153711 0.197446 -0.088374
170 2.969024 6.531237 2.968633 0.276822 -0.013588 -0.116952
171 2.968688 6.531383 4.156168 -0.063696 0.130679 -0.081090
172 2.968777 6.531196 5.343830 0.028765 -0.051714 0.077369
173 2.968448 6.531295 6.531085 -0.294451 0.046828 -0.161309
174 2.968053 6.531138 7.718853 -0.685315 -0.110080 0.101511
175 2.969190 6.531164 8.906390 0.436855 -0.079820 0.137028
176 2.968913 7.718483 0.594022 0.159287 -0.262160 0.268281
177 2.968700 7.718559 1.781167 -0.047717 -0.186613 -0.081800
178 2.969097 7.719008 2.968539 0.338105 0.256268 -0.211612
179 2.968776 7.718768 4.155809 0.030026 0.017577 -0.437516
180 2.968667 7.719214 5.343634 -0.084033 0.459424 -0.120034
181 2.968418 7.718794 6.530943 -0.330177 0.041206 -0.301750
182 2.968712 7.718755 7.718997 -0.034641 0.002258 0.242239
183 2.969200 7.718875 8.906394 0.444676 0.126321 0.146153
184 2.968668 8.905992 0.593908 -0.083051 -0.258514 0.154942
185 2.968770 8.906262 1.781504 0.020294 0.010134 0.251436
186 2.969019 8.906516 2.968647 0.261575 0.268412 -0.098055
187 2.969004 8.906120 4.156426 0.245282 -0.130997 0.175131
188 2.968489 8.906572 5.344001 -0.258854 0.321043 0.247848
189 2.968053 8.906002 6.531158 -0.689299 -0.243215 -0.091506
190 2.968564 8.906027 7.718402 -0.181792 -0.220778 -0.346093
191 2.968722 8.906711 8.905941 -0.027763 0.460034 -0.305816
192 4.156288 0.593767 0.593631 0.038843 0.013929 -0.117302
193 4.156228 0.593731 1.781084 -0.024171 -0.021115 -0.167653
194 4.156083 0.593995 2.968336 -0.162002 0.246854 -0.412052
195 4.156751 0.593740 4.155944 0.497256 -0.006916 -0.304082
196 4.156173 0.593442 5.343858 -0.080137 -0.310392 0.104502
197 4.156628 0.593522 6.531372 0.375864 -0.226578 0.118755
198 4.156057 0.593526 7.718422 -0.191188 -0.219228 -0.321025
199 4.156077 0.594550 8.906459 -0.168417 0.795015 0.202536
200 4.156481 1.780922 0.593807 0.231761 -0.320541 0.057559
201 4.156550 1.781234 1.781490 0.302026 -0.018014 0.234863
202 4.156657 1.781883 2.968451 0.400423 0.622068 -0.295500
203 4.155914 1.781754 4.155949 -0.337306 0.497504 -0.295012
204 4.156618 1.780696 5.344336 0.361509 -0.545176 0.580187
205 4.156165 1.781179 6.531878 -0.080678 -0.072271 0.622760
206 4.156318 1.781771 7.718689 0.069881 0.510589 -0.055156
207 4.155836 1.781746 8.906186 -0.409632 0.495354 -0.063165
208 4.156910 2.969180 0.593429 0.645976 0.422104 -0.314068
209 4.155882 2.968530 1.781679 -0.361145 -0.219054 0.420738
210 4.156280 2.968313 2.968738 0.031500 -0.426808 -0.007861
211 4.156002 2.968867 4.156340 -0.245603 0.120298 0.092138
212 4.156342 2.969249 5.344230 0.090326 0.491826 0.470768
213 4.156351 2.968726 6.530895 0.098207 -0.027329 -0.349841
214 4.156089 2.968572 7.718315 -0.157696 -0.170092 -0.432859
215 4.156417 2.968827 8.906106 0.164137 0.078679 -0.147283
216 4.155954 4.156319 0.594336 -0.290597 0.071170 0.577653
217 4.155717 4.155945 1.781029 -0.527316 -0.299867 -0.213008
218 4.156373 4.156134 2.968878 0.117530 -0.118133 0.124069
219 4.157026 4.156425 4.156207 0.762474 0.172578 -0.047284
220 4.156011 4.156768 5.343055 -0.232711 0.509758 -0.684294
221 4.156736 4.155879 6.531488 0.475450 -0.363721 0.230997
222 4.156117 4.156501 7.718855 -0.135417 0.244643 0.107024
223 4.156037 4.156134 8.906455 -0.211761 -0.116472 0.207737
224 4.156288 5.343650 0.593274 0.036989 -0.100252 -0.474925
225 4.155957 5.344063 1.780882 -0.288780 0.305771 -0.365438
226 4.156198 5.343708 2.968865 -0.048305 -0.045861 0.112403
227 4.156189 5.343691 4.156466 -0.063184 -0.057558 0.212203
228 4.156323 5.343146 5.343547 0.071207 -0.589720 -0.202303
229 4.156438 5.344054 6.530771 0.180392 0.299313 -0.472410
230 4.156656 5.343513 7.718967 0.400471 -0.233281 0.207150
231 4.156285 5.343436 8.905896 0.035224 -0.310833 -0.351248
232 4.156246 6.531027 0.593935 -0.006692 -0.223212 0.184622
233 4.156335 6.531149 1.780799 0.082220 -0.099096 -0.442644
234 4.156818 6.530726 2.968803 0.561689 -0.515854 0.051070
235 4.156132 6.531151 4.156564 -0.118966 -0.096081 0.308950
236 4.156375 6.531459 5.343670 0.125980 0.202270 -0.078923
237 4.156196 6.531525 6.530901 -0.057893 0.273413 -0.342537
238 4.156959 6.531104 7.719018 0.690725 -0.147098 0.267423
239 4.156541 6.531253 8.907016 0.292897 -0.000062 0.758831
240 4.156460 7.718476 0.593658 0.210276 -0.271964 -0.086430
241 4.156013 7.718528 1.781578 -0.232726 -0.221822 0.324451
242 4.155707 7.718874 2.968947 -0.534314 0.118715 0.195780
243 4.156776 7.719021 4.156181 0.521823 0.264675 -0.069153
244 4.156175 7.718881 5.343385 -0.071591 0.128287 -0.357937
245 4.156014 7.718708 6.531622 -0.236106 -0.040069 0.363650
246 4.156710 7.718603 7.718660 0.451566 -0.148023 -0.085262
247 4.156245 7.718659 8.906433 0.001364 -0.087458 0.179113
248 4.155846 8.906215 0.593476 -0.399365 -0.036139 -0.273227
249 4.156195 8.905978 1.780978 -0.054019 -0.270434 -0.268044
250 4.155913 8.906304 2.969034 -0.332458 0.056471 0.278388
251 4.155756 8.906053 4.156274 -0.484962 -0.192477 0.025723
252 4.156523 8.905967 5.343673 0.266770 -0.280322 -0.073840
253 4.156281 8.906092 6.531516 0.024866 -0.157798 0.265215
254 4.156439 8.905999 7.719202 0.186119 -0.250748 0.447347
255 4.156477 8.906511 8.906156 0.225565 0.262636 -0.091255
256 5.343780 0.593489 0.593459 0.029826 -0.255927 -0.290935
257 5.343656 0.593668 1.780895 -0.092515 -0.077373 -0.355707
258 5.344282 0.593627 2.968203 0.526564 -0.125142 -0.541192
259 5.343959 0.593190 4.156382 0.211544 -0.553220 0.126435
260 5.343603 0.593675 5.343768 -0.149317 -0.072027 0.015662
261 5.343964 0.594084 6.530815 0.213126 0.328311 -0.430823
262 5.343727 0.593894 7.718583 -0.024298 0.141216 -0.168765
263 5.343719 0.593350 8.906096 -0.028666 -0.398023 -0.155801
264 5.343761 1.781391 0.593867 0.010569 0.136666 0.112905
265 5.344264 1.781494 1.781032 0.511561 0.239710 -0.215346
266 5.343612 1.780933 2.968554 -0.135363 -0.314982 -0.192914
267 5.343562 1.781211 4.156437 -0.188081 -0.039087 0.180462
268 5.343547 1.781429 5.343395 -0.193153 0.171349 -0.345865
269 5.344125 1.781688 6.531608 0.371342 0.434380 0.350814
270 5.343917 1.781141 7.718888 0.170460 -0.101584 0.138237
271 5.343727 1.781439 8.906150 -0.023670 0.185353 -0.096960
272 5.343662 2.968689 0.593581 -0.081323 -0.059375 -0.167206
273 5.343726 2.968728 1.781172 -0.029329 -0.020938 -0.082227
274 5.343646 2.968603 2.968200 -0.100951 -0.149159 -0.543907
275 5.343490 2.969246 4.156132 -0.261664 0.490094 -0.121355
276 5.343679 2.968163 5.343590 -0.069674 -0.578430 -0.154067
277 5.343717 2.968734 6.531919 -0.031234 -0.011072 0.657554
278 5.343869 2.969458 7.718594 0.116993 0.695853 -0.148444
279 5.343739 2.968962 8.906222 -0.010507 0.208646 -0.030012
280 5.343881 4.156309 0.593622 0.127956 0.059513 -0.120095
281 5.343657 4.156094 1.781807 -0.095290 -0.151876 0.549217
282 5.343754 4.156063 2.968793 0.008516 -0.184708 0.046989
283 5.343439 4.156412 4.156256 -0.298547 0.167754 0.008249
284 5.344310 4.156173 5.343991 0.552158 -0.079794 0.237475
285 5.343314 4.156395 6.531200 -0.428460 0.144820 -0.050388
286 5.343458 4.156092 7.718388 -0.289630 -0.149104 -0.355337
287 5.343255 4.156025 8.906551 -0.492138 -0.220355 0.292696
288 5.343836 5.343967 0.593690 0.086349 0.213942 -0.060009
289 5.343674 5.343969 1.781240 -0.076693 0.216611 -0.009685
290 5.343829 5.343865 2.968860 0.077732 0.112525 0.110098
291 5.343667 5.344329 4.156472 -0.078829 0.571715 0.218071
292 5.343525 5.343806 5.343488 -0.219269 0.052803 -0.253637
293 5.343115 5.343966 6.531650 -0.625705 0.211688 0.394649
294 5.343722 5.343892 7.719015 -0.024666 0.138694 0.264182
295 5.343779 5.343742 8.906189 0.027419 -0.008918 -0.057979
296 5.343531 6.531196 0.593729 -0.217707 -0.053231 -0.021349
297 5.343755 6.531535 1.781064 0.008264 0.281821 -0.180021
298 5.343607 6.531310 2.969219 -0.134086 0.059184 0.460069
299 5.343497 6.531147 4.156142 -0.251011 -0.094385 -0.102741
300 5.344106 6.531063 5.343771 0.351549 -0.181742 0.019273
301 5.343442 6.530901 6.531158 -0.304816 -0.344219 -0.089584
302 5.343340 6.531290 7.718823 -0.398586 0.040652 0.071462
303 5.344093 6.531330 8.906329 0.342895 0.080136 0.077730
304 5.344044 7.718508 0.593811 0.289140 -0.239096 0.059736
305 5.343972 7.718640 1.780773 0.217738 -0.104866 -0.468726
306 5.343575 7.718691 2.968845 -0.173110 -0.060187 0.095451
307 5.344021 7.719044 4.157054 0.269519 0.287726 0.794499
308 5.344194 7.719112 5.343876 0.436627 0.355241 0.131149
309 5.343714 7.718517 6.531320 -0.035788 -0.237308 0.069478
310 5.343615 7.718755 7.718738 -0.129992 0.004916 -0.008212
311 5.344135 7.718884 8.906648 0.381950 0.128224 0.392171
312 5.343671 8.906288 0.593666 -0.084835 0.033667 -0.084457
313 5.343689 8.906422 1.780836 -0.058489 0.168755 -0.408758
314 5.343355 8.905990 2.968779 -0.393682 -0.257513 0.026479
315 5.343861 8.906080 4.156351 0.104921 -0.169437 0.097913
316 5.343694 8.906277 5.343553 -0.052823 0.028911 -0.189328
317 5.343655 8.905687 6.531805 -0.093988 -0.554195 0.544340
318 5.343956 8.906191 7.718503 0.206871 -0.056659 -0.237901
319 5.344051 8.905606 8.906454 0.299393 -0.637498 0.198379
320 6.531214 0.593495 0.593392 -0.036195 -0.252071 -0.353212
321 6.531366 0.593237 1.781093 0.107568 -0.507907 -0.156135
322 6.531620 0.593431 2.968891 0.368519 -0.315305 0.137906
323 6.531422 0.593705 4.156185 0.173940 -0.042582 -0.064449
324 6.530762 0.594088 5.343620 -0.481015 0.335766 -0.125592
325 6.531185 0.593494 6.531583 -0.061982 -0.251669 0.327513
326 6.531240 0.593679 7.718794 -0.006873 -0.068052 0.047535
327 6.531666 0.594024 8.906425 0.408656 0.270082 0.170112
328 6.530952 1.781158 0.593602 -0.290301 -0.088196 -0.149728
329 6.531604 1.780903 1.780834 0.352215 -0.344767 -0.416686
330 6.530956 1.781041 2.968041 -0.291695 -0.207091 -0.700652
331 6.531263 1.781265 4.156469 0.008920 0.016879 0.208488
332 6.531756 1.781319 5.343512 0.496926 0.070034 -0.231409
333 6.531575 1.781271 6.531380 0.325011 0.017815 0.124569
334 6.531978 1.781381 7.718620 0.719654 0.133036 -0.128751
335 6.531538 1.781004 8.906086 0.282605 -0.238449 -0.163519
336 6.531269 2.969381 0.593530 0.017562 0.620360 -0.214857
337 6.530854 2.968857 1.781342 -0.389576 0.102467 0.089142
338 6.531433 2.968895 2.968693 0.177704 0.140225 -0.054841
339 6.530804 2.969092 4.156295 -0.439693 0.332329 0.042965
340 6.531155 2.968647 5.343585 -0.094088 -0.099453 -0.158790
341 6.531352 2.968615 6.531655 0.097123 -0.132130 0.397347
342 6.531382 2.969311 7.718729 0.131431 0.555052 -0.015974
343 6.531100 2.969108 8.906412 -0.149198 0.351242 0.158104
344 6.531313 4.156117 0.593750 0.065146 -0.124165 -0.002037
345 6.531317 4.156233 1.780721 0.065853 -0.013940 -0.522030
346 6.531718 4.156172 2.968676 0.461152 -0.074996 -0.077755
347 6.531548 4.155561 4.156139 0.288721 -0.679315 -0.108208
348 6.531418 4.156425 5.343953 0.171886 0.172938 0.198913
349 6.530925 4.156401 6.531231 -0.323661 0.149145 -0.012912
350 6.531175 4.156364 7.719327 -0.072179 0.116226 0.570060
351 6.530929 4.156316 8.906440 -0.320983 0.061877 0.191939
352 6.531457 5.344009 0.593854 0.203041 0.251818 0.100705
353 6.531325 5.344036 1.781573 0.076403 0.281996 0.320225
354 6.531288 5.343834 2.968845 0.036797 0.086112 0.096769
355 6.531661 5.343373 4.156362 0.403334 -0.380894 0.112287
356 6.531492 5.343882 5.343856 0.235907 0.134664 0.103344
357 6.531075 5.343874 6.531016 -0.177109 0.124332 -0.229173
358 6.531132 5.343688 7.718829 -0.114632 -0.058804 0.070603
359 6.531066 5.342935 8.905620 -0.181278 -0.802003 -0.619361
360 6.531030 6.530934 0.593787 -0.217912 -0.307116 0.038548
361 6.531542 6.531269 1.781382 0.288069 0.021379 0.127203
362 6.531561 6.531827 2.968326 0.305425 0.568872 -0.420712
363 6.531176 6.530722 4.155748 -0.073514 -0.523498 -0.497653
364 6.531237 6.531610 5.343839 -0.010879 0.357016 0.082036
365 6.531164 6.531378 6.531055 -0.086207 0.127791 -0.191408
366 6.531223 6.531435 7.718818 -0.028211 0.179384 0.066482
367 6.531623 6.531439 8.906320 0.370688 0.183520 0.070071
368 6.530950 7.719133 0.593614 -0.293283 0.375321 -0.131458
369 6.531362 7.718788 1.781404 0.110464 0.037777 0.150193
370 6.531753 7.718669 2.968683 0.493401 -0.074485 -0.061989
371 6.531009 7.718756 4.156609 -0.235636 0.002786 0.351704
372 6.531193 7.718863 5.343553 -0.051945 0.115443 -0.187420
373 6.531444 7.718916 6.531737 0.190239 0.165761 0.476775
374 6.531257 7.718492 7.718481 0.005581 -0.252739 -0.260008
375 6.531561 7.719107 8.906429 0.308412 0.354874 0.173739
376 6.530707 8.906267 0.593816 -0.534093 0.017204 0.065434
377 6.531522 8.906243 1.781483 0.267269 -0.010851 0.232172
378 6.531100 8.906309 2.968968 -0.151300 0.055313 0.218242
379 6.531102 8.906432 4.156445 -0.147490 0.179223 0.192185
380 6.531256 8.906459 5.343517 0.007176 0.209708 -0.227075
381 6.531225 8.906372 6.531321 -0.025170 0.119537 0.065703
382 6.531534 8.906345 7.718500 0.278856 0.090859 -0.247390
383 6.531357 8.906462 8.906033 0.108606 0.214411 -0.215205
384 7.718643 0.593631 0.593845 -0.106107 -0.117028 0.092152
385 7.718030 0.593690 1.781388 -0.708921 -0.062013 0.135983
386 7.718728 0.593959 2.968706 -0.018214 0.208090 -0.043410
387 7.719117 0.593399 4.156150 0.361399 -0.343384 -0.097935
388 7.718963 0.593831 5.343887 0.208912 0.077253 0.129809
389 7.718834 0.593506 6.530617 0.079851 -0.242091 -0.624232
390 7.719206 0.593579 7.718636 0.445091 -0.169423 -0.120595
391 7.718645 0.594079 8.905849 -0.098849 0.324886 -0.395376
392 7.719294 1.781247 0.593260 0.535637 -0.005653 -0.484963
393 7.718651 1.781287 1.781246 -0.097918 0.035434 -0.010410
394 7.718738 1.781197 2.968390 -0.016506 -0.048981 -0.352217
395 7.718413 1.781376 4.156587 -0.329240 0.119893 0.330727
396 7.718705 1.781178 5.343826 -0.040769 -0.069552 0.079479
397 7.719012 1.781236 6.531495 0.258737 -0.012443 0.243950
398 7.718790 1.780833 7.718983 0.045033 -0.411591 0.229574
399 7.718662 1.781624 8.905991 -0.083536 0.370370 -0.257026
400 7.718640 2.968488 0.593271 -0.104620 -0.258312 -0.474168
401 7.718883 2.968625 1.781290 0.131320 -0.122359 0.039298
402 7.718491 2.968933 2.969248 -0.255336 0.177409 0.489018
403 7.718985 2.968544 4.155970 0.226845 -0.204479 -0.273356
404 7.718830 2.968836 5.343569 0.077728 0.084800 -0.181956
405 7.718349 2.969195 6.531088 -0.392255 0.436288 -0.163118
406 7.718873 2.968927 7.718495 0.119934 0.171463 -0.255269
407 7.718612 2.968625 8.905919 -0.138977 -0.120580 -0.331751
408 7.719009 4.156353 0.593157 0.255035 0.096002 -0.591987
409 7.718793 4.156382 1.780848 0.043104 0.127158 -0.400176
410 7.718713 4.155946 2.968801 -0.029502 -0.295493 0.044772
411 7.718375 4.156034 4.155980 -0.368290 -0.215677 -0.265423
412 7.719021 4.156386 5.343869 0.270162 0.136055 0.113435
413 7.718750 4.155900 6.531014 -0.001978 -0.342543 -0.232336
414 7.719193 4.156302 7.718680 0.436584 0.047885 -0.075796
415 7.718652 4.156266 8.905691 -0.096542 0.013956 -0.555868
416 7.718556 5.343259 0.593515 -0.191216 -0.485116 -0.230722
417 7.719143 5.343459 1.781440 0.388329 -0.287874 0.183072
418 7.718616 5.344092 2.968461 -0.132181 0.331702 -0.280537
419 7.718594 5.343566 4.156641 -0.152725 -0.184741 0.385324
420 7.718655 5.343851 5.344021 -0.091368 0.100256 0.271793
421 7.718749 5.343583 6.531405 -0.005893 -0.162428 0.158066
422 7.718952 5.343157 7.719205 0.195226 -0.580399 0.449164
423 7.718779 5.343666 8.906114 0.026640 -0.085320 -0.131851
424 7.718846 6.530998 0.593574 0.093388 -0.256955 -0.176314
425 7.718834 6.531047 1.781146 0.083530 -0.205359 -0.103238
426 7.718746 6.530843 2.968853 -0.004410 -0.401506 0.103731
427 7.718940 6.531038 4.156548 0.190313 -0.210889 0.294860
428 7.718625 6.531199 5.343818 -0.124977 -0.052122 0.066736
429 7.718841 6.531902 6.530945 0.087114 0.641408 -0.300629
430 7.718990 6.531701 7.718655 0.236005 0.439295 -0.097906
431 7.718758 6.530904 8.905973 0.009418 -0.346063 -0.275392
432 7.718745 7.718145 0.594026 -0.005263 -0.598302 0.272333
433 7.718609 7.718299 1.780997 -0.136656 -0.449095 -0.249159
434 7.718552 7.718319 2.968568 -0.191787 -0.425483 -0.182562
435 7.718731 7.718670 4.156109 -0.023525 -0.078317 -0.138795
436 7.718849 7.718491 5.343954 0.101005 -0.257085 0.198757
437 7.718661 7.718744 6.531031 -0.085110 -0.002489 -0.217249
438 7.718685 7.718713 7.718358 -0.061844 -0.030385 -0.386249
439 7.718579 7.718131 8.906539 -0.167244 -0.615326 0.284183
440 7.718973 8.906266 0.593752 0.215826 0.010552 0.001757
441 7.718687 8.905803 1.781372 -0.061293 -0.444768 0.123901
442 7.718740 8.906485 2.969178 -0.012938 0.230207 0.424433
443 7.718486 8.906509 4.156484 -0.262729 0.252414 0.232021
444 7.718945 8.906015 5.343449 0.194025 -0.233008 -0.292710
445 7.718828 8.906018 6.531543 0.077706 -0.231114 0.287417
446 7.718444 8.906601 7.718870 -0.300328 0.344706 0.119990
447 7.718858 8.905955 8.906123 0.108794 -0.293642 -0.124543
448 8.906192 0.593641 0.593957 -0.058677 -0.105962 0.204452
449 8.906223 0.593607 1.781419 -0.032348 -0.139748 0.169063
450 8.906319 0.593784 2.968881 0.071097 0.027769 0.130104
451 8.905994 0.593698 4.156250 -0.247927 -0.054409 -0.000698
452 8.906583 0.593461 5.343573 0.329656 -0.279807 -0.175255
453 8.905953 0.593002 6.531150 -0.290948 -0.734465 -0.099279
454 8.905673 0.593454 7.718760 -0.565914 -0.291145 0.008345
455 8.906402 0.593377 8.906147 0.144500 -0.365686 -0.099594
456 8.906433 1.781627 0.593797 0.183477 0.375889 0.049768
457 8.905833 1.781584 1.781611 -0.416135 0.326957 0.357456
458 8.905842 1.781114 2.968937 -0.402723 -0.128492 0.186740
459 8.906682 1.780996 4.156160 0.422861 -0.250050 -0.090945
460 8.906201 1.781465 5.343282 -0.045633 0.212854 -0.462741
461 8.905943 1.781578 6.531098 -0.298940 0.316686 -0.153540
462 8.906262 1.781491 7.718773 0.015963 0.231450 0.021686
463 8.906395 1.781280 8.906311 0.145267 0.023143 0.060231
464 8.906770 2.969375 0.593316 0.510156 0.620418 -0.428713
465 8.906619 2.968597 1.781183 0.364534 -0.150504 -0.069303
466 8.906122 2.969465 2.968753 -0.127469 0.703129 0.003021
467 8.906045 2.968806 4.156308 -0.200091 0.054614 0.056759
468 8.906259 2.969178 5.343625 0.007206 0.423193 -0.125791
469 8.906564 2.968551 6.530796 0.307820 -0.197112 -0.448723
470 8.905935 2.968205 7.718721 -0.310885 -0.537394 -0.033100
471 8.905995 2.968272 8.906176 -0.250228 -0.470002 -0.076504
472 8.906076 4.156391 0.593730 -0.168834 0.140248 -0.021021
473 8.906280 4.156026 1.781089 0.030660 -0.222781 -0.161521
474 8.906654 4.156139 2.968416 0.401201 -0.104212 -0.330302
475 8.906199 4.156490 4.156333 -0.055785 0.234985 0.077901
476 8.906518 4.156153 5.343587 0.265055 -0.087332 -0.157263
477 8.906335 4.155842 6.531562 0.083230 -0.402646 0.309482
478 8.906300 4.155958 7.719177 0.048455 -0.292084 0.423159
479 8.906645 4.156352 8.906154 0.384543 0.100548 -0.092036
480 8.906057 5.343282 0.593403 -0.190550 -0.459694 -0.336572
481 8.906245 5.343634 1.781462 -0.000068 -0.116935 0.209307
482 8.906230 5.343711 2.969115 -0.022651 -0.042104 0.363764
483 8.905982 5.343503 4.156571 -0.261579 -0.241773 0.316771
484 8.906288 5.344422 5.343491 0.038852 0.660189 -0.250658
485 8.905840 5.343886 6.531597 -0.400714 0.131068 0.341492
486 8.905821 5.343723 7.718951 -0.422389 -0.026779 0.204605
487 8.906121 5.344236 8.906740 -0.129772 0.477359 0.481796
488 8.906302 6.531280 0.594269 0.051812 0.028705 0.514236
489 8.906039 6.531118 1.781442 -0.207499 -0.131104 0.194118
490 8.905861 6.530870 2.968877 -0.383474 -0.379238 0.127583
491 8.906719 6.531213 4.156334 0.464814 -0.042383 0.085908
492 8.906098 6.531039 5.343982 -0.154773 -0.204150 0.231829
493 8.905961 6.531238 6.531572 -0.284456 -0.014219 0.325110
494 8.906162 6.531585 7.719484 -0.086410 0.330793 0.726365
495 8.906028 6.530894 8.906313 -0.217622 -0.349980 0.071417
496 8.906446 7.719103 0.593616 0.194203 0.346754 -0.130543
497 8.906477 7.718724 1.781638 0.220742 -0.028368 0.381417
498 8.906252 7.718111 2.968727 0.004880 -0.637445 -0.018616
499 8.905892 7.718242 4.156336 -0.354314 -0.502689 0.088888
500 8.906732 7.718621 5.344328 0.477404 -0.125177 0.569488
501 8.906399 7.718372 6.531128 0.144508 -0.372602 -0.109370
502 8.906533 7.718868 7.719680 0.277228 0.117978 0.915094